 DBCSR| CPU Multiplication driver                                           XSMM
 DBCSR| Multrec recursion limit                                              512
 DBCSR| Multiplication stack size                                          30000
 DBCSR| Maximum elements for images                                    UNLIMITED
 DBCSR| Multiplicative factor virtual images                                   1
 DBCSR| Use multiplication densification                                       F
 DBCSR| Multiplication size stacks                                             3
 DBCSR| Use memory pool for CPU allocation                                     F
 DBCSR| Number of 3D layers                                               SINGLE
 DBCSR| Use MPI memory allocation                                              F
 DBCSR| Use RMA algorithm                                                      F
 DBCSR| Use Communication thread                                               T
 DBCSR| Communication thread load                                             53
 DBCSR| MPI: My node id                                                        0
 DBCSR| MPI: Number of nodes                                                   8
 DBCSR| OMP: Current number of threads                                        10
 DBCSR| OMP: Max number of threads                                            10
 DBCSR| ACC: Number of devices/node                                            4
 DBCSR| ACC: Number of priority stack-buffers                                 40
 DBCSR| ACC: Number of posterior stack-buffers                                80
 DBCSR| ACC: Number of priority streams                                        4
 DBCSR| ACC: Number of posterior streams                                       4
 DBCSR| ACC: Avoid driver after busy                                           F
 DBCSR| ACC: Process inhomogeneous stacks                                      T
 DBCSR| ACC: Min. flop for processing                                          0
 DBCSR| ACC: Min. flop for sorting                                          4000
 DBCSR| ACC: Number of binning bins                                         4096
 DBCSR| ACC: Size of binning bins                                             16
 DBCSR| Split modifier for TAS multiplication algorithm                  1.0E+00


  **** **** ******  **  PROGRAM STARTED AT               2021-08-19 13:45:36.217
 ***** ** ***  *** **   PROGRAM STARTED ON                                r2i5n0
 **    ****   ******    PROGRAM STARTED BY                                hollyj
 ***** **    ** ** **   PROGRAM PROCESS ID                                 41726
  **** **  *******  **  PROGRAM STARTED IN /lustre/home/w68/hollyj/CP2K/Cirrus/G
                                           PU/cp2kMD/ClC-19/1STEPS/2NODES/36CPN/
                                           10THREADS

 CP2K| version string:                                          CP2K version 8.2
 CP2K| source code revision number:                                  git:310b7ab
 CP2K| cp2kflags: omp libint fftw3 libxc elpa parallel mpi3 scalapack cosma pw_c
 CP2K|            uda xsmm cuda_profiling dbcsr_acc spglib mkl grid_cuda
 CP2K| is freely available from                            https://www.cp2k.org/
 CP2K| Program compiled at                          Thu Jul 22 18:07:58 BST 2021
 CP2K| Program compiled on                                                r2i5n7
 CP2K| Program compiled for                                           Cirrus-gcc
 CP2K| Data directory path       /lustre/home/w68/hollyj/CP2K/v8.2/cp2k-8.2/data
 CP2K| Input file name                                           ClC-19-cp2k.inp

 GLOBAL| Force Environment number                                              1
 GLOBAL| Basis set file name                                        BASIS_MOLOPT
 GLOBAL| Potential file name                                           POTENTIAL
 GLOBAL| MM Potential file name                                     MM_POTENTIAL
 GLOBAL| Coordinate file name                                            ClC.pdb
 GLOBAL| Method name                                                        CP2K
 GLOBAL| Project name                                                ClC-19-BLYP
 GLOBAL| Run type                                                             MD
 GLOBAL| FFT library                                                       FFTW3
 GLOBAL| Diagonalization library                                            ELPA
 GLOBAL| Minimum number of eigenvectors for ELPA usage                        16
 GLOBAL| Orthonormality check for eigenvectors                          DISABLED
 GLOBAL| Matrix multiplication library                                     COSMA
 GLOBAL| All-to-all communication in single precision                          F
 GLOBAL| FFTs using library dependent lengths                                  F
 GLOBAL| Grid backend                                                       AUTO
 GLOBAL| Global print level                                                  LOW
 GLOBAL| MPI I/O enabled                                                       T
 GLOBAL| Total number of message passing processes                             8
 GLOBAL| Number of threads for this process                                   10
 GLOBAL| This output is from process                                           0
 GLOBAL| CPU model name                 Intel(R) Xeon(R) Gold 6248 CPU @ 2.50GHz
 GLOBAL| CPUID                                                              1003

 MEMORY| system memory details [Kb]
 MEMORY|                        rank 0           min           max       average
 MEMORY| MemTotal            394535408     394535408     394535408     394535408
 MEMORY| MemFree             386960184     386960184     387080456     387020341
 MEMORY| Buffers                     0             0             0             0
 MEMORY| Cached                 785592        767864        785592        776723
 MEMORY| Slab                  1149120       1083676       1149120       1116398
 MEMORY| SReclaimable           217472        209600        217472        213536
 MEMORY| MemLikelyFree       387963248     387963248     388057920     388010600



                      ************* ******** ***********   
                     ************* **********************  
                     ****     **** ****      ***********   
                     ******** ****  *******     ****       
                     *******  ****   *******   ****        
                     ****     ****       ****  ****        
                     ****     **** **********  ****        
                      ****     **** ********    ****       
                     FRONTIERS IN SIMULATION TECHNOLOGY    
                                                           
                        C.J. Mundy, S. Balasubramanian,    
                     Ken Bagchi, J. Hutter, Ari Seitsonen  
                      IFW Kuo, T. Laino, J. VandeVondele   
                                 Version 1.0               

                                                           


 EWALD| Summation is done by:                                               SPME
 EWALD| Alpha parameter [       ANGSTROM^-1]                              0.4000
 EWALD| Real Space Cutoff [          ANGSTROM]                            8.4348
 EWALD| G-space max. Miller index                         80        80        80
 EWALD| Spline interpolation order                                             6

 FORCEFIELD| WARNING: A non Critical ForceField parameter is missing! CP2K GOES!
 FORCEFIELD| Non critical parameters are:Urey-Bradley,Torsions,Impropers, Opbends and 1-4
 FORCEFIELD| All missing parameters will not contribute to the potential energy!
 FORCEFIELD| Activate the print key FF_INFO to have a list of missing parameters

 CHARGE_INFO| Total Charge of the Classical System:                     0.856595

 SPLINE_INFO| Generating 49141 splines for NONBONDED14 interactions 
              Due to 313 different atomic kinds
  ...4914  ...9828  ...14742  ...19656  ...24570  ...29484  ...34398  ...39312  ...44226  ...49140
 SPLINE_INFO| Number of unique splines computed:            254
 SPLINE_INFO| Done

 SPLINE_INFO| Generating 49141 splines for NONBONDED interactions 
              Due to 313 different atomic kinds
  ...4914  ...9828  ...14742  ...19656  ...24570  ...29484  ...34398  ...39312  ...44226  ...49140
 SPLINE_INFO| Number of unique splines computed:            254
 SPLINE_INFO| Done

 *******************************************************************************
 *******************************************************************************
 **                                                                           **
 **     #####                         ##              ##                      **
 **    ##   ##            ##          ##              ##                      **
 **   ##     ##                       ##            ######                    **
 **   ##     ##  ##   ##  ##   #####  ##  ##   ####   ##    #####    #####    **
 **   ##     ##  ##   ##  ##  ##      ## ##   ##      ##   ##   ##  ##   ##   **
 **   ##  ## ##  ##   ##  ##  ##      ####     ###    ##   ######   ######    **
 **    ##  ###   ##   ##  ##  ##      ## ##      ##   ##   ##       ##        **
 **     #######   #####   ##   #####  ##  ##  ####    ##    #####   ##        **
 **           ##                                                    ##        **
 **                                                                           **
 **                                                ... make the atoms dance   **
 **                                                                           **
 **            Copyright (C) by CP2K developers group (2000-2021)             **
 **                      J. Chem. Phys. 152, 194103 (2020)                    **
 **                                                                           **
 *******************************************************************************


 TOTAL NUMBERS AND MAXIMUM NUMBERS

  Total number of            - Atomic kinds:                                   4
                             - Atoms:                                         21
                             - Shell sets:                                    21
                             - Shells:                                        83
                             - Primitive Cartesian functions:                147
                             - Cartesian basis functions:                    195
                             - Spherical basis functions:                    185

  Maximum angular momentum of- Orbital basis functions:                        2
                             - Local part of the GTH pseudopotential:          2
                             - Non-local part of the GTH pseudopotential:      0


 SCF PARAMETERS         Density guess:                                   RESTART
                        --------------------------------------------------------
                        max_scf:                                             300
                        max_scf_history:                                       0
                        max_diis:                                              4
                        --------------------------------------------------------
                        eps_scf:                                        1.00E-06
                        eps_scf_history:                                0.00E+00
                        eps_diis:                                       1.00E-01
                        eps_eigval:                                     1.00E-05
                        --------------------------------------------------------
                        level_shift [a.u.]:                                 0.00
                        --------------------------------------------------------
                        No outer SCF

 *******************************************************************************
 *******************************************************************************
 **                                                                           **
 **             #######  ##     ## ##     ## ##     ##                        **
 **            ##     ## ###   ### ###   ### ###   ###                        **
 **            ##     ## #### #### #### #### #### ####                        **
 **            ##     ## ## ### ## ## ### ## ## ### ##                        **
 **            ##  ## ## ##     ## ##     ## ##     ##                        **
 **            ##    ##  ##     ## ##     ## ##     ##  T.Laino and F.Mohamed **
 **             ##### ## ##     ## ##     ## ##     ##  2005 - 2015           **
 **                                                                           **
 **                                                     Calculation Started.. **
 *******************************************************************************
 *******************************************************************************

 MD_PAR| Molecular dynamics protocol (MD input parameters)
 MD_PAR| Ensemble type                                                       NVE
 MD_PAR| Number of time steps                                                  1
 MD_PAR| Time step [fs]                                                 1.000000
 MD_PAR| Temperature [K]                                              300.000000
 MD_PAR| Temperature tolerance [K]                                      0.000000
 MD_PAR| Print MD information every                                    1 step(s)
 MD_PAR| File type   Print frequency [steps]                          File names
 MD_PAR| Coordinates          1                            ClC-19-BLYP-pos-1.xyz
 MD_PAR| Velocities           1                            ClC-19-BLYP-vel-1.xyz
 MD_PAR| Energies             1                               ClC-19-BLYP-1.ener
 MD_PAR| Dump                20                            ClC-19-BLYP-1.restart

 ROT| Rotational analysis information
 ROT| Principal axes and moments of inertia [a.u.]
 ROT|                           1                   2                   3
 ROT| Eigenvalues     -9.31322574615E-10   2.18170203485E+07   2.18170203485E+07
 ROT|      x             -0.485996759465      0.120975086013     -0.865547328777
 ROT|      y              0.748090801474      0.569619391910     -0.340431933153
 ROT|      z             -0.451848760692      0.812956811230      0.367333527650
 ROT| Number of rotovibrational vectors                                        6

 DOF| Calculation of degrees of freedom
 DOF| Number of atoms                                                     150925
 DOF| Number of intramolecular constraints                                     0
 DOF| Number of intermolecular constraints                                     0
 DOF| Invariants (translations + rotations)                                    3
 DOF| Degrees of freedom                                                  452772

 DOF| Restraints information
 DOF| Number of intramolecular restraints                                      0
 DOF| Number of intermolecular restraints                                      0

 MD_VEL| Velocities initialization
 MD_VEL| Initial temperature [K]                                      300.000000
 MD_VEL| COM velocity            -0.0000000000     0.0000000000     0.0000000000

  Translating the system in order to center the QM fragment in the QM box.

 Number of electrons:                                                         58
 Number of occupied orbitals:                                                 29
 Number of molecular orbitals:                                                29

 Number of orbital functions:                                                185
 Number of independent orbital functions:                                    185

 Extrapolation method: initial_guess


 SCF WAVEFUNCTION OPTIMIZATION

  ----------------------------------- OT ---------------------------------------
  Minimizer      : DIIS                : direct inversion
                                         in the iterative subspace
                                         using   7 DIIS vectors
                                         safer DIIS on
  Preconditioner : FULL_ALL            : diagonalization, state selective
  Precond_solver : DEFAULT
  stepsize       :    0.15000000                  energy_gap     :    0.08000000
  eps_taylor     :   0.10000E-15                  max_taylor     :             4
  ----------------------------------- OT ---------------------------------------

  Step     Update method      Time    Convergence         Total energy    Change
  ------------------------------------------------------------------------------
  Decoupling Energy:                                               0.0436562741
  Recoupling Energy:                                              -0.0063494342
     1 OT DIIS     0.15E+00    1.8     0.00000182      -112.6112974748 -1.13E+02
  Decoupling Energy:                                               0.0436561268
  Recoupling Energy:                                              -0.0063494341
     2 OT DIIS     0.15E+00    0.6     0.00000240      -112.6112974763 -1.51E-09
  Decoupling Energy:                                               0.0436563219
  Recoupling Energy:                                              -0.0063494343
     3 OT DIIS     0.15E+00    0.6     0.00000182      -112.6112974769 -5.97E-10
  Decoupling Energy:                                               0.0436561686
  Recoupling Energy:                                              -0.0063494341
     4 OT DIIS     0.15E+00    0.6     0.00000200      -112.6112974776 -6.72E-10
  Decoupling Energy:                                               0.0436562000
  Recoupling Energy:                                              -0.0063494342
     5 OT DIIS     0.15E+00    0.6     0.00000079      -112.6112974786 -9.60E-10

  *** SCF run converged in     5 steps ***


  Electronic density on regular grids:        -58.0000000031       -0.0000000031
  Core density on regular grids:               59.0000000000       -0.0000000000
  Total charge density on r-space grids:        0.9999999969
  Total charge density g-space grids:           0.9999999969

  Overlap energy of the core charge distribution:               0.00000276462327
  Self energy of the core charge distribution:               -262.49982108018179
  Core Hamiltonian energy:                                     77.82713604639474
  Hartree energy:                                             108.26024348634344
  Exchange-correlation energy:                                -27.74149564737318
  QM/MM Electrostatic energy:                                  -8.45736304838001

  Total energy:                                              -112.61129747857353
  Decoupling Energy:                                               0.0436562428
  Recoupling Energy:                                              -0.0063494344

 ENERGY| Total FORCE_EVAL ( QMMM ) energy [a.u.]:           -574.282125877756016

 MD_INI| MD initialization
 MD_INI| Potential energy [hartree]                          -0.574282125878E+03
 MD_INI| Total kinetic energy [hartree]                       0.215076797492E+03
 MD_INI| QM kinetic energy [hartree]                          0.263607482367E-01
 MD_INI| Total temperature [K]                                        300.000000
 MD_INI| QM temperature [K]                                           264.255746
 MD_INI| Cell volume [bohr^3]                                 9.853827160554E+06
 MD_INI| Cell volume [ang^3]                                  1.460186515536E+06
 MD_INI| Cell lengths [bohr]      2.39870119E+02  2.39870119E+02  1.71258698E+02
 MD_INI| Cell lengths [ang]       1.26933800E+02  1.26933800E+02  9.06262000E+01
 MD_INI| Cell angles [deg]        9.00000000E+01  9.00000000E+01  9.00000000E+01

  Translating the system in order to center the QM fragment in the QM box.

 Number of electrons:                                                         58
 Number of occupied orbitals:                                                 29
 Number of molecular orbitals:                                                29

 Number of orbital functions:                                                185
 Number of independent orbital functions:                                    185

 Extrapolation method: ASPC


 SCF WAVEFUNCTION OPTIMIZATION

  ----------------------------------- OT ---------------------------------------
  Minimizer      : DIIS                : direct inversion
                                         in the iterative subspace
                                         using   7 DIIS vectors
                                         safer DIIS on
  Preconditioner : FULL_ALL            : diagonalization, state selective
  Precond_solver : DEFAULT
  stepsize       :    0.15000000                  energy_gap     :    0.08000000
  eps_taylor     :   0.10000E-15                  max_taylor     :             4
  ----------------------------------- OT ---------------------------------------

  Step     Update method      Time    Convergence         Total energy    Change
  ------------------------------------------------------------------------------
  Decoupling Energy:                                               0.0436638312
  Recoupling Energy:                                              -0.0063493931
     1 OT DIIS     0.15E+00    0.5     0.00128847      -112.5701658559 -1.13E+02
  Decoupling Energy:                                               0.0435725349
  Recoupling Energy:                                              -0.0063490919
     2 OT DIIS     0.15E+00    0.6     0.00117277      -112.5707957168 -6.30E-04
  Decoupling Energy:                                               0.0436794857
  Recoupling Energy:                                              -0.0063494033
     3 OT DIIS     0.15E+00    0.6     0.00106621      -112.5709080939 -1.12E-04
  Decoupling Energy:                                               0.0436555304
  Recoupling Energy:                                              -0.0063493377
     4 OT DIIS     0.15E+00    0.6     0.00054258      -112.5710430825 -1.35E-04
  Decoupling Energy:                                               0.0436136304
  Recoupling Energy:                                              -0.0063492191
     5 OT DIIS     0.15E+00    0.6     0.00042770      -112.5710771372 -3.41E-05
  Decoupling Energy:                                               0.0436405133
  Recoupling Energy:                                              -0.0063492662
     6 OT DIIS     0.15E+00    0.6     0.00015610      -112.5710919046 -1.48E-05
  Decoupling Energy:                                               0.0436362635
  Recoupling Energy:                                              -0.0063493091
     7 OT DIIS     0.15E+00    0.6     0.00010447      -112.5710969845 -5.08E-06
  Decoupling Energy:                                               0.0436367088
  Recoupling Energy:                                              -0.0063492782
     8 OT DIIS     0.15E+00    0.6     0.00006947      -112.5711018745 -4.89E-06
  Decoupling Energy:                                               0.0436342406
  Recoupling Energy:                                              -0.0063492680
     9 OT DIIS     0.15E+00    0.6     0.00005887      -112.5711079603 -6.09E-06
  Decoupling Energy:                                               0.0436357469
  Recoupling Energy:                                              -0.0063492717
    10 OT DIIS     0.15E+00    0.6     0.00005134      -112.5711127530 -4.79E-06
  Decoupling Energy:                                               0.0436354455
  Recoupling Energy:                                              -0.0063492607
    11 OT DIIS     0.15E+00    0.6     0.00004543      -112.5711155149 -2.76E-06
  Decoupling Energy:                                               0.0436337136
  Recoupling Energy:                                              -0.0063492487
    12 OT DIIS     0.15E+00    0.6     0.00004713      -112.5711177162 -2.20E-06
  Decoupling Energy:                                               0.0436330885
  Recoupling Energy:                                              -0.0063492432
    13 OT DIIS     0.15E+00    0.6     0.00004290      -112.5711188527 -1.14E-06
  Decoupling Energy:                                               0.0436360387
  Recoupling Energy:                                              -0.0063492432
    14 OT DIIS     0.15E+00    0.6     0.00005298      -112.5711204729 -1.62E-06
  Decoupling Energy:                                               0.0436334052
  Recoupling Energy:                                              -0.0063492363
    15 OT DIIS     0.15E+00    0.6     0.00003866      -112.5711231586 -2.69E-06
  Decoupling Energy:                                               0.0436327090
  Recoupling Energy:                                              -0.0063492116
    16 OT DIIS     0.15E+00    0.6     0.00003481      -112.5711248024 -1.64E-06
  Decoupling Energy:                                               0.0436311761
  Recoupling Energy:                                              -0.0063491941
    17 OT DIIS     0.15E+00    0.6     0.00002605      -112.5711275091 -2.71E-06
  Decoupling Energy:                                               0.0436315667
  Recoupling Energy:                                              -0.0063491836
    18 OT DIIS     0.15E+00    0.6     0.00002405      -112.5711291987 -1.69E-06
  Decoupling Energy:                                               0.0436302360
  Recoupling Energy:                                              -0.0063491683
    19 OT DIIS     0.15E+00    0.7     0.00001910      -112.5711300853 -8.87E-07
  Decoupling Energy:                                               0.0436280571
  Recoupling Energy:                                              -0.0063491582
    20 OT DIIS     0.15E+00    0.6     0.00002582      -112.5711305509 -4.66E-07
  Decoupling Energy:                                               0.0436288817
  Recoupling Energy:                                              -0.0063491549
    21 OT DIIS     0.15E+00    0.6     0.00001507      -112.5711306194 -6.85E-08
  Decoupling Energy:                                               0.0436298686
  Recoupling Energy:                                              -0.0063491547
    22 OT DIIS     0.15E+00    0.6     0.00001828      -112.5711307061 -8.66E-08
  Decoupling Energy:                                               0.0436285336
  Recoupling Energy:                                              -0.0063491528
    23 OT DIIS     0.15E+00    0.6     0.00001011      -112.5711307507 -4.46E-08
  Decoupling Energy:                                               0.0436284905
  Recoupling Energy:                                              -0.0063491486
    24 OT DIIS     0.15E+00    0.6     0.00000640      -112.5711307616 -1.09E-08
  Decoupling Energy:                                               0.0436283001
  Recoupling Energy:                                              -0.0063491476
    25 OT DIIS     0.15E+00    0.6     0.00000372      -112.5711307575  4.06E-09
  Decoupling Energy:                                               0.0436284452
  Recoupling Energy:                                              -0.0063491484
    26 OT DIIS     0.15E+00    0.6     0.00000312      -112.5711307615 -3.97E-09
  Decoupling Energy:                                               0.0436283447
  Recoupling Energy:                                              -0.0063491479
    27 OT DIIS     0.15E+00    0.6     0.00000280      -112.5711307613  1.60E-10
  Decoupling Energy:                                               0.0436282353
  Recoupling Energy:                                              -0.0063491479
    28 OT DIIS     0.15E+00    0.6     0.00000291      -112.5711307634 -2.02E-09
  Decoupling Energy:                                               0.0436283402
  Recoupling Energy:                                              -0.0063491483
    29 OT DIIS     0.15E+00    0.6     0.00000257      -112.5711307684 -5.01E-09
  Decoupling Energy:                                               0.0436285257
  Recoupling Energy:                                              -0.0063491490
    30 OT DIIS     0.15E+00    0.6     0.00000329      -112.5711307713 -2.95E-09
  Decoupling Energy:                                               0.0436283637
  Recoupling Energy:                                              -0.0063491495
    31 OT DIIS     0.15E+00    0.6     0.00000237      -112.5711307782 -6.90E-09
  Decoupling Energy:                                               0.0436283409
  Recoupling Energy:                                              -0.0063491485
    32 OT DIIS     0.15E+00    0.6     0.00000230      -112.5711307786 -3.37E-10
  Decoupling Energy:                                               0.0436284000
  Recoupling Energy:                                              -0.0063491498
    33 OT DIIS     0.15E+00    0.6     0.00000153      -112.5711307863 -7.69E-09
  Decoupling Energy:                                               0.0436284855
  Recoupling Energy:                                              -0.0063491505
    34 OT DIIS     0.15E+00    0.6     0.00000139      -112.5711307900 -3.73E-09
  Decoupling Energy:                                               0.0436284815
  Recoupling Energy:                                              -0.0063491508
    35 OT DIIS     0.15E+00    0.6     0.00000114      -112.5711307932 -3.19E-09
  Decoupling Energy:                                               0.0436284927
  Recoupling Energy:                                              -0.0063491515
    36 OT DIIS     0.15E+00    0.6     0.00000117      -112.5711307966 -3.43E-09
  Decoupling Energy:                                               0.0436285696
  Recoupling Energy:                                              -0.0063491519
    37 OT DIIS     0.15E+00    0.6     0.00000143      -112.5711307977 -1.05E-09
  Decoupling Energy:                                               0.0436286739
  Recoupling Energy:                                              -0.0063491525
    38 OT DIIS     0.15E+00    0.6     0.00000144      -112.5711307990 -1.29E-09
  Decoupling Energy:                                               0.0436285928
  Recoupling Energy:                                              -0.0063491528
    39 OT DIIS     0.15E+00    0.6     0.00000072      -112.5711307995 -5.72E-10

  *** SCF run converged in    39 steps ***


  Electronic density on regular grids:        -57.9999999985        0.0000000015
  Core density on regular grids:               59.0000000000       -0.0000000000
  Total charge density on r-space grids:        1.0000000015
  Total charge density g-space grids:           1.0000000015

  Overlap energy of the core charge distribution:               0.00000254932108
  Self energy of the core charge distribution:               -262.49982108018179
  Core Hamiltonian energy:                                     77.74842964662631
  Hartree energy:                                             108.31580476448795
  Exchange-correlation energy:                                -27.71946815205213
  QM/MM Electrostatic energy:                                  -8.41607852772791

  Total energy:                                              -112.57113079952649
  Decoupling Energy:                                               0.0436285925
  Recoupling Energy:                                              -0.0063491525

 ENERGY| Total FORCE_EVAL ( QMMM ) energy [a.u.]:           -552.394403095017765

 MD| ***************************************************************************
 MD| Step number                                                               1
 MD| Time [fs]                                                          1.000000
 MD| Conserved quantity [hartree]                            -0.353696654772E+03
 MD| ---------------------------------------------------------------------------
 MD|                                          Instantaneous             Averages
 MD| CPU time per MD step [s]                     77.078133            77.078133
 MD| Energy drift per atom [K]           0.115255886752E+02   0.000000000000E+00
 MD| Potential energy [hartree]         -0.552394403095E+03  -0.552394403095E+03
 MD| Total kinetic energy [hartree]      0.198697748323E+03   0.198697748323E+03
 MD| QM kinetic energy [hartree]         0.283943544437E-01   0.283943544437E-01
 MD| Total temperature [K]                       277.153673           277.153673
 MD| QM temperature [K]                          284.641818           284.641818
 MD| ***************************************************************************

 -------------------------------------------------------------------------------
 -                                                                             -
 -                                DBCSR STATISTICS                             -
 -                                                                             -
 -------------------------------------------------------------------------------
 COUNTER                                    TOTAL       BLAS       SMM       ACC
 flops     5 x     5 x    29              4593600       0.0%      0.0%    100.0%
 flops    13 x     5 x    29              9952800       0.0%      0.0%    100.0%
 flops     5 x    13 x    29              9952800       0.0%      0.0%    100.0%
 flops    29 x    29 x    29             12682280       0.0%      0.0%    100.0%
 flops    29 x    29 x     5             16466780       0.0%      0.0%    100.0%
 flops     5 x    29 x    29             20537220       0.0%      0.0%    100.0%
 flops    13 x    13 x    29             25877280       0.0%      0.0%    100.0%
 flops     5 x    29 x     5             34037300       0.0%      0.0%    100.0%
 flops    29 x    29 x    13             38921480       0.0%      0.0%    100.0%
 flops    13 x    29 x    29             48542520       0.0%      0.0%    100.0%
 flops    13 x    29 x     5             80451800       0.0%      0.0%    100.0%
 flops     5 x    29 x    13             80451800       0.0%      0.0%    100.0%
 flops    13 x    29 x    13            190158800       0.0%      0.0%    100.0%
 flops inhomo. stacks                           0       0.0%      0.0%      0.0%
 flops total                       572.626460E+06       0.0%      0.0%    100.0%
 flops max/rank                    295.036140E+06       0.0%      0.0%    100.0%
 matmuls inhomo. stacks                         0       0.0%      0.0%      0.0%
 matmuls total                             105302       0.0%      0.0%    100.0%
 number of processed stacks                 41726       0.0%      0.0%    100.0%
 average stack size                                     0.0       0.0       2.5
 marketing flops                   618.152832E+06
 -------------------------------------------------------------------------------
 # multiplications                            904
 max memory usage/rank               2.133844E+09
 # max total images/rank                        2
 # max 3D layers                                1
 # MPI messages exchanged                   36160
 MPI messages size (bytes):
  total size                       243.553216E+06
  min size                           0.000000E+00
  max size                          41.040000E+03
  average size                       6.735432E+03
 MPI breakdown and total messages size (bytes):
             size <=      128               24806                        0
       128 < size <=     8192                1262                  8490736
      8192 < size <=    32768                7764                146342400
     32768 < size <=   131072                2328                 88720080
    131072 < size <=  4194304                   0                        0
   4194304 < size <= 16777216                   0                        0
  16777216 < size                               0                        0
 -------------------------------------------------------------------------------

 *** WARNING in dbcsr_mm.F:294 :: Using a non-square number of MPI ranks ***
 *** might lead to poor performance. Used ranks: 8 Suggested: 9 16       ***

 -------------------------------------------------------------------------------
 -                                                                             -
 -                      DBCSR MESSAGE PASSING PERFORMANCE                      -
 -                                                                             -
 -------------------------------------------------------------------------------
 ROUTINE             CALLS      AVE VOLUME [Bytes]
 MP_Bcast               14                     12.
 MP_Allreduce         3292                      8.
 MP_Alltoall          2933                   2298.
 MP_ISend            13488                   3885.
 MP_IRecv            13036                   2960.
 -------------------------------------------------------------------------------

 -------------------------------------------------------------------------------
 -                                                                             -
 -                                GRID STATISTICS                              -
 -                                                                             -
 -------------------------------------------------------------------------------
 LP    KERNEL             BACKEND                              COUNT     PERCENT
 3     collocate ortho    GPU                                 230092      23.05%
 3     integrate ortho    GPU                                 227216      22.76%
 2     collocate ortho    GPU                                 163910      16.42%
 2     integrate ortho    GPU                                 156782      15.71%
 4     integrate ortho    GPU                                 110168      11.04%
 4     collocate ortho    GPU                                 104720      10.49%
 5     integrate ortho    GPU                                   4556       0.46%
 0     collocate general  REF                                    336       0.03%
 1     integrate general  REF                                    336       0.03%
 -------------------------------------------------------------------------------

 MEMORY| Estimated peak process memory [MiB]                                2046

 -------------------------------------------------------------------------------
 -                                                                             -
 -                         MESSAGE PASSING PERFORMANCE                         -
 -                                                                             -
 -------------------------------------------------------------------------------

 ROUTINE             CALLS      AVE VOLUME [Bytes]
 MP_Group                8
 MP_Bcast             8554               10556531.
 MP_Allreduce         1278                 298173.
 MP_Sync                19
 MP_Alltoall           912               46291204.
 MP_ISendRecv         1932                 497664.
 MP_Wait              3206
 MP_comm_split           6
 MP_ISend             1058                2682025.
 MP_IRecv             1056                2686398.
 MP_Recv                 9                  11840.
 -------------------------------------------------------------------------------


 -------------------------------------------------------------------------------
 -                                                                             -
 -                           R E F E R E N C E S                               -
 -                                                                             -
 -------------------------------------------------------------------------------
 
 CP2K version 8.2, the CP2K developers group (2021).
 CP2K is freely available from https://www.cp2k.org/ .

 Kuehne,Thomas D.; Iannuzzi,Marcella; Del Ben,Mauro;
 Rybkin,Vladimir V.; Seewald,Patrick; Stein,Frederick; Laino,Teodoro;
 Khaliullin,Rustam Z.; Schuett,Ole; Schiffmann,Florian; Golze,Dorothea;
 Wilhelm,Jan; Chulkov,Sergey; Bani-Hashemian,Mohammad Hossein;
 Weber,Valery; Borstnik,Urban; Taillefumier,Mathieu;
 Jakobovits,Alice Shoshana; Lazzaro,Alfio; Pabst,Hans; Mueller,Tiziano;
 Schade,Robert; Guidon,Manuel; Andermatt,Samuel; Holmberg,Nico;
 Schenter,Gregory K.; Hehn,Anna; Bussy,Augustin; Belleflamme,Fabian;
 Tabacchi,Gloria; Gloess,Andreas; Lass,Michael; Bethune,Iain;
 Mundy,Christopher J.; Plessl,Christian; Watkins,Matt;
 VandeVondele,Joost; Krack,Matthias; Hutter,Juerg. 
 The Journal of Chemical Physics, 152 (19), (2020). 
 CP2K: An electronic structure and molecular dynamics software package -
 Quickstep: Efficient and accurate electronic structure calculations.
 https://doi.org/10.1063/5.0007045

 Schuett, Ole; Messmer, Peter; Hutter, Juerg; VandeVondele, Joost. 
 Electronic Structure Calculations on Graphics Processing Units, John
 Wiley & Sons, Ltd, 173-190 (2016). 
 GPU-Accelerated Sparse Matrix-Matrix Multiplication for
 Linear Scaling Density Functional Theory.
 https://doi.org/10.1002/9781118670712.ch8

 Heinecke, A; Henry, G; Hutchinson, M; Pabst, H. 
 Proceedings of Intl. Supercomputing Conference, 981-991 (2016). 
 LIBXSMM: Accelerating Small Matrix Multiplications
 by Runtime Code Generation.
 https://doi.org/10.1109/SC.2016.83

 Borstnik, U; VandeVondele, J; Weber, V; Hutter, J. 
 PARALLEL COMPUTING, 40 (5-6), 47-58 (2014). 
 Sparse matrix multiplication: The distributed block-compressed sparse
 row library.
 https://doi.org/10.1016/j.parco.2014.03.012

 Hutter, J; Iannuzzi, M; Schiffmann, F; VandeVondele, J. 
 WIREs Comput Mol Sci., 4 (1), 15-25 (2014). 
 CP2K: atomistic simulations of condensed matter systems.
 https://doi.org/10.1002/wcms.1159

 Marek, A; Blum, V; Johanni, R; Havu, V; Lang, B; Auckenthaler, T;
 Heinecke, A; Bungartz, H; Lederer, H. 
 Journal of Physics: Condensed Matter, 26 (21), (2014). 
 The ELPA library: scalable parallel eigenvalue solutions for
 electronic structure
 theory and computational science.
 https://doi.org/10.1088/0953-8984/26/21/213201

 VandeVondele, J; Hutter, J. 
 JOURNAL OF CHEMICAL PHYSICS, 127 (11), 114105 (2007). 
 Gaussian basis sets for accurate calculations on molecular systems in
 gas and condensed phases.
 https://doi.org/10.1063/1.2770708

 Kuhne, TD; Krack, M; Mohamed, FR; Parrinello, M. 
 PHYSICAL REVIEW LETTERS, 98 (6), 066401 (2007). 
 Efficient and accurate Car-Parrinello-like approach to
 Born-Oppenheimer molecular dynamics.
 https://doi.org/10.1103/PhysRevLett.98.066401

 Laino, T; Mohamed, F; Laio, A; Parrinello, M. 
 JOURNAL OF CHEMICAL THEORY AND COMPUTATION, 2 (5), 1370-1378 (2006). 
 An efficient linear-scaling electrostatic coupling for treating
 periodic boundary conditions in QM/MM simulations.
 https://doi.org/10.1021/ct6001169

 Laino, T; Mohamed, F; Laio, A; Parrinello, M. 
 JOURNAL OF CHEMICAL THEORY AND COMPUTATION, 1 (6), 1176-1184 (2005). 
 An efficient real space multigrid QM/MM electrostatic coupling.
 https://doi.org/10.1021/ct050123f

 Krack, M. 
 THEORETICAL CHEMISTRY ACCOUNTS, 114 (1-3), 145-152 (2005). 
 Pseudopotentials for H to Kr optimized for gradient-corrected
 exchange-correlation functionals.
 https://doi.org/10.1007/s00214-005-0655-y

 VandeVondele, J; Krack, M; Mohamed, F; Parrinello, M; Chassaing, T;
 Hutter, J. COMPUTER PHYSICS COMMUNICATIONS, 167 (2), 103-128 (2005). 
 QUICKSTEP: Fast and accurate density functional calculations using a
 mixed Gaussian and plane waves approach.
 https://doi.org/10.1016/j.cpc.2004.12.014

 Frigo, M; Johnson, SG. 
 PROCEEDINGS OF THE IEEE, 93 (2), 216-231 (2005). 
 The design and implementation of FFTW3.
 https://doi.org/10.1109/JPROC.2004.840301

 Kolafa, J. 
 JOURNAL OF COMPUTATIONAL CHEMISTRY, 25 (3), 335-342 (2004). 
 Time-reversible always stable predictor-corrector method for molecular dynamics of polarizable molecules.
 https://doi.org/10.1002/jcc.10385

 VandeVondele, J; Hutter, J. 
 JOURNAL OF CHEMICAL PHYSICS, 118 (10), 4365-4369 (2003). 
 An efficient orbital transformation method for electronic structure
 calculations.
 https://doi.org/10.1063/1.1543154

 Hartwigsen, C; Goedecker, S; Hutter, J. 
 PHYSICAL REVIEW B, 58 (7), 3641-3662 (1998). 
 Relativistic separable dual-space Gaussian pseudopotentials from H to Rn.
 https://doi.org/10.1103/PhysRevB.58.3641

 Lippert, G; Hutter, J; Parrinello, M. 
 MOLECULAR PHYSICS, 92 (3), 477-487 (1997). 
 A hybrid Gaussian and plane wave density functional scheme.
 https://doi.org/10.1080/002689797170220

 Goedecker, S; Teter, M; Hutter, J. 
 PHYSICAL REVIEW B, 54 (3), 1703-1710 (1996). 
 Separable dual-space Gaussian pseudopotentials.
 https://doi.org/10.1103/PhysRevB.54.1703

 ESSMANN, U; PERERA, L; BERKOWITZ, ML; DARDEN, T; LEE, H; PEDERSEN, LG. 
 JOURNAL OF CHEMICAL PHYSICS, 103 (19), 8577-8593 (1995). 
 A SMOOTH PARTICLE MESH EWALD METHOD.
 https://doi.org/10.1063/1.470117

 BLOCHL, PE. 
 JOURNAL OF CHEMICAL PHYSICS, 103 (17), 7422-7428 (1995). 
 ELECTROSTATIC DECOUPLING OF PERIODIC IMAGES OF PLANE-WAVE-EXPANDED
 DENSITIES AND DERIVED ATOMIC POINT CHARGES.
 https://doi.org/10.1063/1.470314

 BECKE, AD. PHYSICAL REVIEW A, 38 (6), 3098-3100 (1988). 
 DENSITY-FUNCTIONAL EXCHANGE-ENERGY APPROXIMATION WITH CORRECT
 ASYMPTOTIC-BEHAVIOR.
 https://doi.org/10.1103/PhysRevA.38.3098

 LEE, CT; YANG, WT; PARR, RG. 
 PHYSICAL REVIEW B, 37 (2), 785-789 (1988). 
 DEVELOPMENT OF THE COLLE-SALVETTI CORRELATION-ENERGY FORMULA INTO A
 FUNCTIONAL OF THE ELECTRON-DENSITY.
 https://doi.org/10.1103/PhysRevB.37.785


 -------------------------------------------------------------------------------
 -                                                                             -
 -                                T I M I N G                                  -
 -                                                                             -
 -------------------------------------------------------------------------------
 SUBROUTINE                       CALLS  ASD         SELF TIME        TOTAL TIME
                                MAXIMUM       AVERAGE  MAXIMUM  AVERAGE  MAXIMUM
 CP2K                                 1  1.0    0.217    0.243  134.925  134.927
 qs_mol_dyn_low                       1  2.0    0.020    0.034   78.339   79.663
 qmmm_env_create                      1  2.0    7.364    7.535   54.946   54.952
 velocity_verlet                      1  3.0    0.008    0.011   45.190   45.243
 fist_init                            1  3.0    0.006    0.012   42.464   42.466
 qs_forces                            2  3.5    0.000    0.000   32.748   32.750
 qs_energies                          2  4.5    0.000    0.000   31.713   31.715
 scf_env_do_scf                       2  5.5    0.000    0.000   29.248   29.248
 scf_env_do_scf_inner_loop           44  6.9    0.001    0.002   27.313   27.314
 force_field_control                  1  4.0    0.000    0.001   25.798   25.909
 rdparm_amber_8                       2  6.5   21.309   22.381   25.050   25.087
 rebuild_ks_matrix                   46  8.7    0.000    0.000   21.921   21.991
 qs_ks_build_kohn_sham_matrix        46  9.7    0.006    0.006   21.921   21.991
 qs_ks_update_qs_env                 46  7.9    0.000    0.000   20.914   20.982
 pw_transfer                        942 12.4    0.057    0.060   18.177   18.549
 fft_wrap_pw1pw2                    794 13.4    0.007    0.008   17.943   18.309
 fft_wrap_pw1pw2_200                510 14.6    0.002    0.003   16.769   17.110
 topology_control                     1  4.0    0.001    0.002   16.524   16.563
 fist_calc_energy_force               2  3.5    0.018    0.020   16.503   16.549
 qmmm_el_coupling                     2  3.5    0.000    0.000   15.075   15.166
 qmmm_elec_with_gaussian              2  4.5    0.008    0.009   15.074   15.165
 qs_vxc_create                       46 10.7    0.001    0.002   13.213   13.225
 xc_vxc_pw_create                    46 11.7    0.411    0.425   13.212   13.224
 connectivity_control                 2  4.0    0.000    0.001   13.136   13.203
 force_field_pack                     1  5.0    0.009    0.010   13.055   13.169
 qmmm_elec_with_gaussian_low          2  5.5    0.000    0.000   12.667   13.040
 read_force_field_amber               1  5.0    0.004    0.005   12.672   12.706
 read_connectivity_amber              1  6.0    0.000    0.000   12.383   12.386
 qmmm_forces                          2  3.5    0.008    0.009   11.974   11.975
 force_nonbond                        2  4.5    8.639   11.742    8.639   11.742
 qmmm_forces_with_gaussian            2  4.5    0.013    0.016   11.360   11.587
 pw_cuda_c1dr3d_3d_ps               422 15.9    0.007    0.007    9.822   10.270
 force_field_pack_ub                  1  6.0    9.586    9.676    9.586    9.676
 qmmm_force_with_gaussian_low         2  5.5    0.000    0.000    9.040    9.254
 mp_sum_d                          1544  9.4    3.718    9.014    3.718    9.014
 pw_cuda_r3dc1d_3d_ps               372 14.9    0.007    0.007    8.110    8.301
 qmmm_forces_gaussian_low_R           2  6.5    0.000    0.000    6.838    7.003
 qmmm_forces_with_gaussian_LG         2  7.5    6.838    7.003    6.838    7.003
 qmmm_elec_gaussian_low_R             2  6.5    0.000    0.000    6.605    6.892
 qmmm_elec_with_gaussian_LG           2  7.5    6.605    6.892    6.605    6.892
 qmmm_elec_gaussian_low_G             2  6.5    6.063    6.487    6.063    6.487
 xc_rho_set_and_dset_create          46 12.7    0.403    0.421    6.326    6.417
 qs_rho_update_rho                   46  7.9    0.000    0.000    5.589    5.603
 calculate_rho_elec                  46  8.9    0.294    0.294    5.588    5.603
 x_to_yz                            422 16.9    2.503    2.939    4.901    5.347
 mp_sum_dm3                          13  5.2    4.536    5.327    4.536    5.327
 mp_alltoall_z22v                   794 17.4    4.571    5.069    4.571    5.069
 density_rs2pw                       46  9.9    0.002    0.002    4.858    5.003
 pw_integral_ab                     974  7.4    4.147    4.217    4.380    4.511
 eval_pw_TabLR                        3  3.0    0.926    4.365    4.442    4.448
 list_control                         2  4.5    0.016    0.017    4.272    4.349
 build_fist_neighbor_lists            1  5.0    0.000    0.000    4.245    4.317
 dbcsr_multiply_generic             904 13.0    0.028    0.029    3.848    4.243
 sum_up_and_integrate                46 10.7    0.113    0.121    3.928    3.934
 integrate_v_rspace                  46 11.7    0.001    0.001    3.815    3.821
 yz_to_x                            372 15.9    1.347    1.517    3.520    3.707
 multiply_cannon                    904 14.0    0.121    0.160    2.608    3.677
 build_neighbor_lists                 1  6.0    3.527    3.590    3.527    3.590
 potential_pw2rs                     46 12.7    0.012    0.013    3.328    3.342
 multiply_cannon_loop               904 15.0    0.097    0.102    2.278    3.339
 pw_cuda_sf                         422 16.9    2.954    3.146    2.954    3.146
 parser_read_line               1179731  7.6    0.266    0.293    2.439    3.013
 rs_pw_transfer                     380 12.1    0.004    0.005    2.799    2.913
 pw_cuda_fg                         372 15.9    2.647    2.829    2.647    2.829
 parser_read_line_low              1188  8.6    0.268    1.300    2.173    2.768
 -------------------------------------------------------------------------------

 The number of warnings for this run is : 1
 
 -------------------------------------------------------------------------------
  **** **** ******  **  PROGRAM ENDED AT                 2021-08-19 13:47:56.530
 ***** ** ***  *** **   PROGRAM RAN ON                                    r2i5n0
 **    ****   ******    PROGRAM RAN BY                                    hollyj
 ***** **    ** ** **   PROGRAM PROCESS ID                                 41726
  **** **  *******  **  PROGRAM STOPPED IN /lustre/home/w68/hollyj/CP2K/Cirrus/G
                                           PU/cp2kMD/ClC-19/1STEPS/2NODES/36CPN/
                                           10THREADS
