 DBCSR| CPU Multiplication driver                                           XSMM
 DBCSR| Multrec recursion limit                                              512
 DBCSR| Multiplication stack size                                          30000
 DBCSR| Maximum elements for images                                    UNLIMITED
 DBCSR| Multiplicative factor virtual images                                   1
 DBCSR| Use multiplication densification                                       F
 DBCSR| Multiplication size stacks                                             3
 DBCSR| Use memory pool for CPU allocation                                     F
 DBCSR| Number of 3D layers                                               SINGLE
 DBCSR| Use MPI memory allocation                                              F
 DBCSR| Use RMA algorithm                                                      F
 DBCSR| Use Communication thread                                               T
 DBCSR| Communication thread load                                             53
 DBCSR| MPI: My node id                                                        0
 DBCSR| MPI: Number of nodes                                                  16
 DBCSR| OMP: Current number of threads                                        10
 DBCSR| OMP: Max number of threads                                            10
 DBCSR| ACC: Number of devices/node                                            4
 DBCSR| ACC: Number of priority stack-buffers                                 40
 DBCSR| ACC: Number of posterior stack-buffers                                80
 DBCSR| ACC: Number of priority streams                                        4
 DBCSR| ACC: Number of posterior streams                                       4
 DBCSR| ACC: Avoid driver after busy                                           F
 DBCSR| ACC: Process inhomogeneous stacks                                      T
 DBCSR| ACC: Min. flop for processing                                          0
 DBCSR| ACC: Min. flop for sorting                                          4000
 DBCSR| ACC: Number of binning bins                                         4096
 DBCSR| ACC: Size of binning bins                                             16
 DBCSR| Split modifier for TAS multiplication algorithm                  1.0E+00


  **** **** ******  **  PROGRAM STARTED AT               2021-08-19 17:13:13.102
 ***** ** ***  *** **   PROGRAM STARTED ON                                r2i6n2
 **    ****   ******    PROGRAM STARTED BY                                hollyj
 ***** **    ** ** **   PROGRAM PROCESS ID                                 12167
  **** **  *******  **  PROGRAM STARTED IN /lustre/home/w68/hollyj/CP2K/Cirrus/G
                                           PU/cp2kMD/MQAE-B3LYP-large/6STEPS/4NO
                                           DES/36CPN/10THREADS

 CP2K| version string:                                          CP2K version 8.2
 CP2K| source code revision number:                                  git:310b7ab
 CP2K| cp2kflags: omp libint fftw3 libxc elpa parallel mpi3 scalapack cosma pw_c
 CP2K|            uda xsmm cuda_profiling dbcsr_acc spglib mkl grid_cuda
 CP2K| is freely available from                            https://www.cp2k.org/
 CP2K| Program compiled at                          Thu Jul 22 18:07:58 BST 2021
 CP2K| Program compiled on                                                r2i5n7
 CP2K| Program compiled for                                           Cirrus-gcc
 CP2K| Data directory path       /lustre/home/w68/hollyj/CP2K/v8.2/cp2k-8.2/data
 CP2K| Input file name                                             mqae-cp2k.inp

 GLOBAL| Force Environment number                                              1
 GLOBAL| Basis set file name                                     EMSL_BASIS_SETS
 GLOBAL| Potential file name                                           POTENTIAL
 GLOBAL| MM Potential file name                                     MM_POTENTIAL
 GLOBAL| Coordinate file name                                           mqae.pdb
 GLOBAL| Method name                                                        CP2K
 GLOBAL| Project name                                                 MQAE-B3LYP
 GLOBAL| Run type                                                             MD
 GLOBAL| FFT library                                                       FFTW3
 GLOBAL| Diagonalization library                                            ELPA
 GLOBAL| Minimum number of eigenvectors for ELPA usage                        16
 GLOBAL| Orthonormality check for eigenvectors                          DISABLED
 GLOBAL| Matrix multiplication library                                     COSMA
 GLOBAL| All-to-all communication in single precision                          F
 GLOBAL| FFTs using library dependent lengths                                  F
 GLOBAL| Grid backend                                                       AUTO
 GLOBAL| Global print level                                                  LOW
 GLOBAL| MPI I/O enabled                                                       T
 GLOBAL| Total number of message passing processes                            16
 GLOBAL| Number of threads for this process                                   10
 GLOBAL| This output is from process                                           0
 GLOBAL| CPU model name                 Intel(R) Xeon(R) Gold 6248 CPU @ 2.50GHz
 GLOBAL| CPUID                                                              1003

 MEMORY| system memory details [Kb]
 MEMORY|                        rank 0           min           max       average
 MEMORY| MemTotal            394535408     394535400     394535408     394535406
 MEMORY| MemFree             386818228     386776988     386840752     386818411
 MEMORY| Buffers                     0             0             0             0
 MEMORY| Cached                 980660        906868        980660        942366
 MEMORY| Slab                  1081540       1081540       1147928       1118046
 MEMORY| SReclaimable           204124        204124        219996        212308
 MEMORY| MemLikelyFree       388003012     387943176     388003044     387973085



                      ************* ******** ***********   
                     ************* **********************  
                     ****     **** ****      ***********   
                     ******** ****  *******     ****       
                     *******  ****   *******   ****        
                     ****     ****       ****  ****        
                     ****     **** **********  ****        
                      ****     **** ********    ****       
                     FRONTIERS IN SIMULATION TECHNOLOGY    
                                                           
                        C.J. Mundy, S. Balasubramanian,    
                     Ken Bagchi, J. Hutter, Ari Seitsonen  
                      IFW Kuo, T. Laino, J. VandeVondele   
                                 Version 1.0               

                                                           


 EWALD| Summation is done by:                                               SPME
 EWALD| Alpha parameter [       ANGSTROM^-1]                              0.4000
 EWALD| Real Space Cutoff [          ANGSTROM]                            8.4348
 EWALD| G-space max. Miller index                         80        80        80
 EWALD| Spline interpolation order                                             6

 FORCEFIELD| WARNING: A non Critical ForceField parameter is missing! CP2K GOES!
 FORCEFIELD| Non critical parameters are:Urey-Bradley,Torsions,Impropers, Opbends and 1-4
 FORCEFIELD| All missing parameters will not contribute to the potential energy!
 FORCEFIELD| Activate the print key FF_INFO to have a list of missing parameters

 CHARGE_INFO| Total Charge of the Classical System:                     0.000000

 SPLINE_INFO| Generating 465 splines for NONBONDED14 interactions 
              Due to 30 different atomic kinds
  ...46  ...92  ...138  ...184  ...230  ...276  ...322  ...368  ...414  ...460
 SPLINE_INFO| Number of unique splines computed:            22
 SPLINE_INFO| Done

 SPLINE_INFO| Generating 465 splines for NONBONDED interactions 
              Due to 30 different atomic kinds
  ...46  ...92  ...138  ...184  ...230  ...276  ...322  ...368  ...414  ...460
 SPLINE_INFO| Number of unique splines computed:            22
 SPLINE_INFO| Done

 *******************************************************************************
 *******************************************************************************
 **                                                                           **
 **     #####                         ##              ##                      **
 **    ##   ##            ##          ##              ##                      **
 **   ##     ##                       ##            ######                    **
 **   ##     ##  ##   ##  ##   #####  ##  ##   ####   ##    #####    #####    **
 **   ##     ##  ##   ##  ##  ##      ## ##   ##      ##   ##   ##  ##   ##   **
 **   ##  ## ##  ##   ##  ##  ##      ####     ###    ##   ######   ######    **
 **    ##  ###   ##   ##  ##  ##      ## ##      ##   ##   ##       ##        **
 **     #######   #####   ##   #####  ##  ##  ####    ##    #####   ##        **
 **           ##                                                    ##        **
 **                                                                           **
 **                                                ... make the atoms dance   **
 **                                                                           **
 **            Copyright (C) by CP2K developers group (2000-2021)             **
 **                      J. Chem. Phys. 152, 194103 (2020)                    **
 **                                                                           **
 *******************************************************************************


 TOTAL NUMBERS AND MAXIMUM NUMBERS

  Total number of            - Atomic kinds:                                   4
                             - Atoms:                                         34
                             - Shell sets:                                   120
                             - Shells:                                       156
                             - Primitive Cartesian functions:                278
                             - Cartesian basis functions:                    350
                             - Spherical basis functions:                    332

  Maximum angular momentum of- Orbital basis functions:                        2
                             - Local part of the GTH pseudopotential:          2
                             - Non-local part of the GTH pseudopotential:      0


 SCF PARAMETERS         Density guess:                                   RESTART
                        --------------------------------------------------------
                        max_scf:                                              20
                        max_scf_history:                                       0
                        max_diis:                                              4
                        --------------------------------------------------------
                        eps_scf:                                        1.00E-06
                        eps_scf_history:                                0.00E+00
                        eps_diis:                                       1.00E-01
                        eps_eigval:                                     1.00E-05
                        --------------------------------------------------------
                        level_shift [a.u.]:                                 0.00
                        --------------------------------------------------------
                        Outer loop SCF in use 
                        No variables optimised in outer loop
                        eps_scf                                         1.00E-06
                        max_scf                                               20
                        No outer loop optimization
                        step_size                                       5.00E-01

 *******************************************************************************
 *******************************************************************************
 **                                                                           **
 **             #######  ##     ## ##     ## ##     ##                        **
 **            ##     ## ###   ### ###   ### ###   ###                        **
 **            ##     ## #### #### #### #### #### ####                        **
 **            ##     ## ## ### ## ## ### ## ## ### ##                        **
 **            ##  ## ## ##     ## ##     ## ##     ##                        **
 **            ##    ##  ##     ## ##     ## ##     ##  T.Laino and F.Mohamed **
 **             ##### ## ##     ## ##     ## ##     ##  2005 - 2015           **
 **                                                                           **
 **                                                     Calculation Started.. **
 *******************************************************************************
 *******************************************************************************

 MD_PAR| Molecular dynamics protocol (MD input parameters)
 MD_PAR| Ensemble type                                                       NVE
 MD_PAR| Number of time steps                                                  6
 MD_PAR| Time step [fs]                                                 1.000000
 MD_PAR| Temperature [K]                                              300.000000
 MD_PAR| Temperature tolerance [K]                                      0.000000
 MD_PAR| Print MD information every                                    1 step(s)
 MD_PAR| File type   Print frequency [steps]                          File names
 MD_PAR| Coordinates          1                             MQAE-B3LYP-pos-1.xyz
 MD_PAR| Velocities           1                             MQAE-B3LYP-vel-1.xyz
 MD_PAR| Energies             1                                MQAE-B3LYP-1.ener
 MD_PAR| Dump                20                             MQAE-B3LYP-1.restart

 ROT| Rotational analysis information
 ROT| Principal axes and moments of inertia [a.u.]
 ROT|                           1                   2                   3
 ROT| Eigenvalues      8.77944938721E+03   1.29891690960E+07   1.29979485454E+07
 ROT|      x             -0.558379687797      0.617732459818     -0.553731642894
 ROT|      y             -0.569867814832     -0.770688439612     -0.285114016960
 ROT|      z             -0.602878758851      0.156351965563      0.782362617327
 ROT| Number of rotovibrational vectors                                        6

 DOF| Calculation of degrees of freedom
 DOF| Number of atoms                                                       7186
 DOF| Number of intramolecular constraints                                     0
 DOF| Number of intermolecular constraints                                     0
 DOF| Invariants (translations + rotations)                                    3
 DOF| Degrees of freedom                                                   21555

 DOF| Restraints information
 DOF| Number of intramolecular restraints                                      0
 DOF| Number of intermolecular restraints                                      0

 MD_VEL| Velocities initialization
 MD_VEL| Initial temperature [K]                                      300.000000
 MD_VEL| COM velocity            -0.0000000000     0.0000000000    -0.0000000000

  Translating the system in order to center the QM fragment in the QM box.

 Number of electrons:                                                         94
 Number of occupied orbitals:                                                 47
 Number of molecular orbitals:                                                47

 Number of orbital functions:                                                332
 Number of independent orbital functions:                                    332

 Extrapolation method: initial_guess


 SCF WAVEFUNCTION OPTIMIZATION

  ----------------------------------- OT ---------------------------------------
  Minimizer      : DIIS                : direct inversion
                                         in the iterative subspace
                                         using   7 DIIS vectors
                                         safer DIIS on
  Preconditioner : FULL_ALL            : diagonalization, state selective
  Precond_solver : DEFAULT
  stepsize       :    0.15000000                  energy_gap     :    0.08000000
  eps_taylor     :   0.10000E-15                  max_taylor     :             4
  ----------------------------------- OT ---------------------------------------

  Step     Update method      Time    Convergence         Total energy    Change
  ------------------------------------------------------------------------------
  Decoupling Energy:                                               0.0283460848
  Recoupling Energy:                                              -0.0186066200

 *** WARNING in hfx_energy_potential.F:592 :: The Kohn Sham matrix is not  ***
 *** 100% occupied. This may result in incorrect Hartree-Fock results. Try ***
 *** to decrease EPS_PGF_ORB and EPS_FILTER_MATRIX in the QS section. For  ***
 *** more information see FAQ: https://www.cp2k.org/faq:hfx_eps_warning    ***

     1 OT DIIS     0.15E+00    5.8     0.00000025      -146.5977626340 -1.47E+02

  *** SCF run converged in     1 steps ***


  Electronic density on regular grids:        -94.0000165540       -0.0000165540
  Core density on regular grids:               94.9999999999       -0.0000000001
  Total charge density on r-space grids:        0.9999834459
  Total charge density g-space grids:           0.9999834459

  Overlap energy of the core charge distribution:               0.00000599177744
  Self energy of the core charge distribution:               -359.57183942644110
  Core Hamiltonian energy:                                    110.60238234947158
  Hartree energy:                                             145.62298264334265
  Exchange-correlation energy:                                -35.08977447598089
  Hartree-Fock Exchange energy:                                -7.83561671024302
  QM/MM Electrostatic energy:                                  -0.32590300597548

  Total energy:                                              -146.59776263404882

  outer SCF iter =    1 RMS gradient =   0.25E-06 energy =       -146.5977626340
  outer SCF loop converged in   1 iterations or    1 steps

  Decoupling Energy:                                               0.0283460885
  Recoupling Energy:                                              -0.0186066196

 ENERGY| Total FORCE_EVAL ( QMMM ) energy [a.u.]:           -125.274615354027247

 MD_INI| MD initialization
 MD_INI| Potential energy [hartree]                          -0.125274615354E+03
 MD_INI| Total kinetic energy [hartree]                       0.102391057087E+02
 MD_INI| QM kinetic energy [hartree]                          0.538313910515E-01
 MD_INI| Total temperature [K]                                        300.000000
 MD_INI| QM temperature [K]                                           333.305658
 MD_INI| Cell volume [bohr^3]                                 4.911308927827E+05
 MD_INI| Cell volume [ang^3]                                  7.277808868775E+04
 MD_INI| Cell lengths [bohr]      7.88979558E+01  7.88979558E+01  7.88979558E+01
 MD_INI| Cell lengths [ang]       4.17510000E+01  4.17510000E+01  4.17510000E+01
 MD_INI| Cell angles [deg]        9.00000000E+01  9.00000000E+01  9.00000000E+01

  Translating the system in order to center the QM fragment in the QM box.

 Number of electrons:                                                         94
 Number of occupied orbitals:                                                 47
 Number of molecular orbitals:                                                47

 Number of orbital functions:                                                332
 Number of independent orbital functions:                                    332

 Extrapolation method: ASPC


 SCF WAVEFUNCTION OPTIMIZATION

  ----------------------------------- OT ---------------------------------------
  Minimizer      : DIIS                : direct inversion
                                         in the iterative subspace
                                         using   7 DIIS vectors
                                         safer DIIS on
  Preconditioner : FULL_ALL            : diagonalization, state selective
  Precond_solver : DEFAULT
  stepsize       :    0.15000000                  energy_gap     :    0.08000000
  eps_taylor     :   0.10000E-15                  max_taylor     :             4
  ----------------------------------- OT ---------------------------------------

  Step     Update method      Time    Convergence         Total energy    Change
  ------------------------------------------------------------------------------
  Decoupling Energy:                                               0.0283463393
  Recoupling Energy:                                              -0.0186067276

 *** WARNING in hfx_energy_potential.F:592 :: The Kohn Sham matrix is not  ***
 *** 100% occupied. This may result in incorrect Hartree-Fock results. Try ***
 *** to decrease EPS_PGF_ORB and EPS_FILTER_MATRIX in the QS section. For  ***
 *** more information see FAQ: https://www.cp2k.org/faq:hfx_eps_warning    ***

     1 OT DIIS     0.15E+00    2.1     0.00263344      -146.4802776538 -1.46E+02
  Decoupling Energy:                                               0.0283348436
  Recoupling Energy:                                              -0.0186023755
     2 OT DIIS     0.15E+00    1.4     0.00099820      -146.4906369325 -1.04E-02
  Decoupling Energy:                                               0.0283386056
  Recoupling Energy:                                              -0.0186029443
     3 OT DIIS     0.15E+00    1.4     0.00037983      -146.4923378095 -1.70E-03
  Decoupling Energy:                                               0.0283352659
  Recoupling Energy:                                              -0.0186018418
     4 OT DIIS     0.15E+00    1.4     0.00014245      -146.4925388992 -2.01E-04
  Decoupling Energy:                                               0.0283369490
  Recoupling Energy:                                              -0.0186025014
     5 OT DIIS     0.15E+00    1.4     0.00005119      -146.4925548282 -1.59E-05
  Decoupling Energy:                                               0.0283364431
  Recoupling Energy:                                              -0.0186022736
     6 OT DIIS     0.15E+00    1.4     0.00001954      -146.4925572122 -2.38E-06
  Decoupling Energy:                                               0.0283365050
  Recoupling Energy:                                              -0.0186023528
     7 OT DIIS     0.15E+00    1.4     0.00000601      -146.4925575379 -3.26E-07
  Decoupling Energy:                                               0.0283365504
  Recoupling Energy:                                              -0.0186023485
     8 OT DIIS     0.15E+00    1.4     0.00000292      -146.4925575829 -4.50E-08
  Decoupling Energy:                                               0.0283365225
  Recoupling Energy:                                              -0.0186023520
     9 OT DIIS     0.15E+00    1.4     0.00000099      -146.4925575896 -6.71E-09

  *** SCF run converged in     9 steps ***


  Electronic density on regular grids:        -93.9999802765        0.0000197235
  Core density on regular grids:               94.9999999999       -0.0000000001
  Total charge density on r-space grids:        1.0000197234
  Total charge density g-space grids:           1.0000197234

  Overlap energy of the core charge distribution:               0.00003300770850
  Self energy of the core charge distribution:               -359.57183942644110
  Core Hamiltonian energy:                                    110.79302695587708
  Hartree energy:                                             145.52494444475153
  Exchange-correlation energy:                                -35.13662044439570
  Hartree-Fock Exchange energy:                                -7.84755937447824
  QM/MM Electrostatic energy:                                  -0.25454275265162

  Total energy:                                              -146.49255758962954

  outer SCF iter =    1 RMS gradient =   0.99E-06 energy =       -146.4925575896
  outer SCF loop converged in   1 iterations or    9 steps

  Decoupling Energy:                                               0.0283365289
  Recoupling Energy:                                              -0.0186023489

 ENERGY| Total FORCE_EVAL ( QMMM ) energy [a.u.]:           -154.709329666038599

 MD| ***************************************************************************
 MD| Step number                                                               1
 MD| Time [fs]                                                          1.000000
 MD| Conserved quantity [hartree]                            -0.123704268793E+03
 MD| ---------------------------------------------------------------------------
 MD|                                          Instantaneous             Averages
 MD| CPU time per MD step [s]                     71.145918            71.145918
 MD| Energy drift per atom [K]          -0.380931584701E+03   0.000000000000E+00
 MD| Potential energy [hartree]         -0.154709329666E+03  -0.154709329666E+03
 MD| Total kinetic energy [hartree]      0.310050608729E+02   0.310050608729E+02
 MD| QM kinetic energy [hartree]         0.223345352627E+00   0.223345352627E+00
 MD| Total temperature [K]                       908.430729           908.430729
 MD| QM temperature [K]                         1382.878433          1382.878433
 MD| ***************************************************************************

  Translating the system in order to center the QM fragment in the QM box.

 Number of electrons:                                                         94
 Number of occupied orbitals:                                                 47
 Number of molecular orbitals:                                                47

 Number of orbital functions:                                                332
 Number of independent orbital functions:                                    332

 Extrapolation method: ASPC


 SCF WAVEFUNCTION OPTIMIZATION

  ----------------------------------- OT ---------------------------------------
  Minimizer      : DIIS                : direct inversion
                                         in the iterative subspace
                                         using   7 DIIS vectors
                                         safer DIIS on
  Preconditioner : FULL_ALL            : diagonalization, state selective
  Precond_solver : DEFAULT
  stepsize       :    0.15000000                  energy_gap     :    0.08000000
  eps_taylor     :   0.10000E-15                  max_taylor     :             4
  ----------------------------------- OT ---------------------------------------

  Step     Update method      Time    Convergence         Total energy    Change
  ------------------------------------------------------------------------------
  Decoupling Energy:                                               0.0283178845
  Recoupling Energy:                                              -0.0185955958

 *** WARNING in hfx_energy_potential.F:592 :: The Kohn Sham matrix is not  ***
 *** 100% occupied. This may result in incorrect Hartree-Fock results. Try ***
 *** to decrease EPS_PGF_ORB and EPS_FILTER_MATRIX in the QS section. For  ***
 *** more information see FAQ: https://www.cp2k.org/faq:hfx_eps_warning    ***

     1 OT DIIS     0.15E+00    2.1     0.00187895      -146.0906331381 -1.46E+02
  Decoupling Energy:                                               0.0283230982
  Recoupling Energy:                                              -0.0185968812
     2 OT DIIS     0.15E+00    1.4     0.00073316      -146.0960622359 -5.43E-03
  Decoupling Energy:                                               0.0283187899
  Recoupling Energy:                                              -0.0185958408
     3 OT DIIS     0.15E+00    1.4     0.00026714      -146.0970258711 -9.64E-04
  Decoupling Energy:                                               0.0283214092
  Recoupling Energy:                                              -0.0185958906
     4 OT DIIS     0.15E+00    1.4     0.00012005      -146.0971141611 -8.83E-05
  Decoupling Energy:                                               0.0283199774
  Recoupling Energy:                                              -0.0185957220
     5 OT DIIS     0.15E+00    1.4     0.00003253      -146.0971247504 -1.06E-05
  Decoupling Energy:                                               0.0283203037
  Recoupling Energy:                                              -0.0185958241
     6 OT DIIS     0.15E+00    1.4     0.00001172      -146.0971259428 -1.19E-06
  Decoupling Energy:                                               0.0283202491
  Recoupling Energy:                                              -0.0185957501
     7 OT DIIS     0.15E+00    1.4     0.00000432      -146.0971260618 -1.19E-07
  Decoupling Energy:                                               0.0283202296
  Recoupling Energy:                                              -0.0185957717
     8 OT DIIS     0.15E+00    1.4     0.00000194      -146.0971260810 -1.92E-08
  Decoupling Energy:                                               0.0283202434
  Recoupling Energy:                                              -0.0185957649
     9 OT DIIS     0.15E+00    1.4     0.00000068      -146.0971260841 -3.16E-09

  *** SCF run converged in     9 steps ***


  Electronic density on regular grids:        -93.9999880613        0.0000119387
  Core density on regular grids:               94.9999999999       -0.0000000001
  Total charge density on r-space grids:        1.0000119386
  Total charge density g-space grids:           1.0000119386

  Overlap energy of the core charge distribution:               0.00018038923889
  Self energy of the core charge distribution:               -359.57183942644110
  Core Hamiltonian energy:                                    111.01048016763121
  Hartree energy:                                             145.43424841991472
  Exchange-correlation energy:                                -35.18660954956083
  Hartree-Fock Exchange energy:                                -7.85986497925060
  QM/MM Electrostatic energy:                                   0.07627889433321

  Total energy:                                              -146.09712608413449

  outer SCF iter =    1 RMS gradient =   0.68E-06 energy =       -146.0971260841
  outer SCF loop converged in   1 iterations or    9 steps

  Decoupling Energy:                                               0.0283202385
  Recoupling Energy:                                              -0.0185957661

 ENERGY| Total FORCE_EVAL ( QMMM ) energy [a.u.]:           -147.708745851491130

 MD| ***************************************************************************
 MD| Step number                                                               2
 MD| Time [fs]                                                          2.000000
 MD| Conserved quantity [hartree]                            -0.119951807272E+03
 MD| ---------------------------------------------------------------------------
 MD|                                          Instantaneous             Averages
 MD| CPU time per MD step [s]                     37.002039            54.073979
 MD| Energy drift per atom [K]          -0.216037037579E+03  -0.108018518790E+03
 MD| Potential energy [hartree]         -0.147708745851E+03  -0.151209037759E+03
 MD| Total kinetic energy [hartree]      0.277569385795E+02   0.293809997262E+02
 MD| QM kinetic energy [hartree]         0.278596254616E+00   0.250970803621E+00
 MD| Total temperature [K]                       813.262585           860.846657
 MD| QM temperature [K]                         1724.973220          1553.925826
 MD| ***************************************************************************

  Translating the system in order to center the QM fragment in the QM box.

 Number of electrons:                                                         94
 Number of occupied orbitals:                                                 47
 Number of molecular orbitals:                                                47

 Number of orbital functions:                                                332
 Number of independent orbital functions:                                    332

 Extrapolation method: ASPC


 SCF WAVEFUNCTION OPTIMIZATION

  ----------------------------------- OT ---------------------------------------
  Minimizer      : DIIS                : direct inversion
                                         in the iterative subspace
                                         using   7 DIIS vectors
                                         safer DIIS on
  Preconditioner : FULL_ALL            : diagonalization, state selective
  Precond_solver : DEFAULT
  stepsize       :    0.15000000                  energy_gap     :    0.08000000
  eps_taylor     :   0.10000E-15                  max_taylor     :             4
  ----------------------------------- OT ---------------------------------------

  Step     Update method      Time    Convergence         Total energy    Change
  ------------------------------------------------------------------------------
  Decoupling Energy:                                               0.0282926218
  Recoupling Energy:                                              -0.0185861429

 *** WARNING in hfx_energy_potential.F:592 :: The Kohn Sham matrix is not  ***
 *** 100% occupied. This may result in incorrect Hartree-Fock results. Try ***
 *** to decrease EPS_PGF_ORB and EPS_FILTER_MATRIX in the QS section. For  ***
 *** more information see FAQ: https://www.cp2k.org/faq:hfx_eps_warning    ***

     1 OT DIIS     0.15E+00    2.0     0.00311623      -145.7602058552 -1.46E+02
  Decoupling Energy:                                               0.0283071969
  Recoupling Energy:                                              -0.0185887320
     2 OT DIIS     0.15E+00    1.4     0.00115483      -145.7748427352 -1.46E-02
  Decoupling Energy:                                               0.0282986174
  Recoupling Energy:                                              -0.0185884145
     3 OT DIIS     0.15E+00    1.4     0.00047227      -145.7770878194 -2.25E-03
  Decoupling Energy:                                               0.0283055327
  Recoupling Energy:                                              -0.0185889969
     4 OT DIIS     0.15E+00    1.4     0.00020496      -145.7773209488 -2.33E-04
  Decoupling Energy:                                               0.0283024459
  Recoupling Energy:                                              -0.0185885710
     5 OT DIIS     0.15E+00    1.4     0.00005117      -145.7773534033 -3.25E-05
  Decoupling Energy:                                               0.0283028742
  Recoupling Energy:                                              -0.0185886279
     6 OT DIIS     0.15E+00    1.4     0.00001691      -145.7773563049 -2.90E-06
  Decoupling Energy:                                               0.0283028461
  Recoupling Energy:                                              -0.0185885644
     7 OT DIIS     0.15E+00    1.4     0.00000704      -145.7773565685 -2.64E-07
  Decoupling Energy:                                               0.0283028614
  Recoupling Energy:                                              -0.0185885992
     8 OT DIIS     0.15E+00    1.4     0.00000314      -145.7773566197 -5.12E-08
  Decoupling Energy:                                               0.0283028639
  Recoupling Energy:                                              -0.0185885829
     9 OT DIIS     0.15E+00    1.4     0.00000105      -145.7773566274 -7.64E-09
  Decoupling Energy:                                               0.0283028605
  Recoupling Energy:                                              -0.0185885872
    10 OT DIIS     0.15E+00    1.4     0.00000025      -145.7773566287 -1.31E-09

  *** SCF run converged in    10 steps ***


  Electronic density on regular grids:        -94.0000514265       -0.0000514265
  Core density on regular grids:               94.9999999999       -0.0000000001
  Total charge density on r-space grids:        0.9999485735
  Total charge density g-space grids:           0.9999485735

  Overlap energy of the core charge distribution:               0.00001383812861
  Self energy of the core charge distribution:               -359.57183942644110
  Core Hamiltonian energy:                                    110.90961283011492
  Hartree energy:                                             145.46428499635923
  Exchange-correlation energy:                                -35.16778656296469
  Hartree-Fock Exchange energy:                                -7.85418471112878
  QM/MM Electrostatic energy:                                   0.44254240726825

  Total energy:                                              -145.77735662866357

  outer SCF iter =    1 RMS gradient =   0.25E-06 energy =       -145.7773566287
  outer SCF loop converged in   1 iterations or   10 steps

  Decoupling Energy:                                               0.0283028604
  Recoupling Energy:                                              -0.0185885863

 ENERGY| Total FORCE_EVAL ( QMMM ) energy [a.u.]:           -142.851634351604645

 MD| ***************************************************************************
 MD| Step number                                                               3
 MD| Time [fs]                                                          3.000000
 MD| Conserved quantity [hartree]                            -0.117148613485E+03
 MD| ---------------------------------------------------------------------------
 MD|                                          Instantaneous             Averages
 MD| CPU time per MD step [s]                     38.251255            48.799737
 MD| Energy drift per atom [K]          -0.928561955157E+02  -0.102964411032E+03
 MD| Potential energy [hartree]         -0.142851634352E+03  -0.148423236623E+03
 MD| Total kinetic energy [hartree]      0.257030208665E+02   0.281550067730E+02
 MD| QM kinetic energy [hartree]         0.353616408119E+00   0.285186005121E+00
 MD| Total temperature [K]                       753.083959           824.925757
 MD| QM temperature [K]                         2189.472486          1765.774713
 MD| ***************************************************************************

  Translating the system in order to center the QM fragment in the QM box.

 Number of electrons:                                                         94
 Number of occupied orbitals:                                                 47
 Number of molecular orbitals:                                                47

 Number of orbital functions:                                                332
 Number of independent orbital functions:                                    332

 Extrapolation method: ASPC


 SCF WAVEFUNCTION OPTIMIZATION

  ----------------------------------- OT ---------------------------------------
  Minimizer      : DIIS                : direct inversion
                                         in the iterative subspace
                                         using   7 DIIS vectors
                                         safer DIIS on
  Preconditioner : FULL_ALL            : diagonalization, state selective
  Precond_solver : DEFAULT
  stepsize       :    0.15000000                  energy_gap     :    0.08000000
  eps_taylor     :   0.10000E-15                  max_taylor     :             4
  ----------------------------------- OT ---------------------------------------

  Step     Update method      Time    Convergence         Total energy    Change
  ------------------------------------------------------------------------------
  Decoupling Energy:                                               0.0282874590
  Recoupling Energy:                                              -0.0185834684

 *** WARNING in hfx_energy_potential.F:592 :: The Kohn Sham matrix is not  ***
 *** 100% occupied. This may result in incorrect Hartree-Fock results. Try ***
 *** to decrease EPS_PGF_ORB and EPS_FILTER_MATRIX in the QS section. For  ***
 *** more information see FAQ: https://www.cp2k.org/faq:hfx_eps_warning    ***

     1 OT DIIS     0.15E+00    2.0     0.00287916      -145.4481333969 -1.45E+02
  Decoupling Energy:                                               0.0282861837
  Recoupling Energy:                                              -0.0185859619
     2 OT DIIS     0.15E+00    1.4     0.00113112      -145.4612480641 -1.31E-02
  Decoupling Energy:                                               0.0282869372
  Recoupling Energy:                                              -0.0185834160
     3 OT DIIS     0.15E+00    1.3     0.00040523      -145.4635805651 -2.33E-03
  Decoupling Energy:                                               0.0282870447
  Recoupling Energy:                                              -0.0185861234
     4 OT DIIS     0.15E+00    1.3     0.00016815      -145.4637116963 -1.31E-04
  Decoupling Energy:                                               0.0282867480
  Recoupling Energy:                                              -0.0185852215
     5 OT DIIS     0.15E+00    1.3     0.00003931      -145.4637309046 -1.92E-05
  Decoupling Energy:                                               0.0282870412
  Recoupling Energy:                                              -0.0185854308
     6 OT DIIS     0.15E+00    1.3     0.00001405      -145.4637324845 -1.58E-06
  Decoupling Energy:                                               0.0282868685
  Recoupling Energy:                                              -0.0185854067
     7 OT DIIS     0.15E+00    1.3     0.00000564      -145.4637326703 -1.86E-07
  Decoupling Energy:                                               0.0282869013
  Recoupling Energy:                                              -0.0185854019
     8 OT DIIS     0.15E+00    1.3     0.00000197      -145.4637327073 -3.71E-08
  Decoupling Energy:                                               0.0282868889
  Recoupling Energy:                                              -0.0185854038
     9 OT DIIS     0.15E+00    1.3     0.00000076      -145.4637327108 -3.50E-09

  *** SCF run converged in     9 steps ***


  Electronic density on regular grids:        -94.0000182418       -0.0000182418
  Core density on regular grids:               94.9999999999       -0.0000000001
  Total charge density on r-space grids:        0.9999817582
  Total charge density g-space grids:           0.9999817582

  Overlap energy of the core charge distribution:               0.00001232484595
  Self energy of the core charge distribution:               -359.57183942644110
  Core Hamiltonian energy:                                    110.82637369180304
  Hartree energy:                                             145.52875033779813
  Exchange-correlation energy:                                -35.13939591634768
  Hartree-Fock Exchange energy:                                -7.84532052201204
  QM/MM Electrostatic energy:                                   0.73768679954385

  Total energy:                                              -145.46373271080986

  outer SCF iter =    1 RMS gradient =   0.76E-06 energy =       -145.4637327108
  outer SCF loop converged in   1 iterations or    9 steps

  Decoupling Energy:                                               0.0282868975
  Recoupling Energy:                                              -0.0185854043

 ENERGY| Total FORCE_EVAL ( QMMM ) energy [a.u.]:           -170.763827488994195

 MD| ***************************************************************************
 MD| Step number                                                               4
 MD| Time [fs]                                                          4.000000
 MD| Conserved quantity [hartree]                            -0.125034989261E+03
 MD| ---------------------------------------------------------------------------
 MD|                                          Instantaneous             Averages
 MD| CPU time per MD step [s]                     36.235839            45.658763
 MD| Energy drift per atom [K]          -0.439407480475E+03  -0.187075178393E+03
 MD| Potential energy [hartree]         -0.170763827489E+03  -0.154008384340E+03
 MD| Total kinetic energy [hartree]      0.457288382285E+02   0.325484646368E+02
 MD| QM kinetic energy [hartree]         0.372100678690E+00   0.306914673513E+00
 MD| Total temperature [K]                      1339.829069           953.651585
 MD| QM temperature [K]                         2303.920800          1900.311235
 MD| ***************************************************************************

  Translating the system in order to center the QM fragment in the QM box.

 Number of electrons:                                                         94
 Number of occupied orbitals:                                                 47
 Number of molecular orbitals:                                                47

 Number of orbital functions:                                                332
 Number of independent orbital functions:                                    332

 Extrapolation method: ASPC


 SCF WAVEFUNCTION OPTIMIZATION

  ----------------------------------- OT ---------------------------------------
  Minimizer      : DIIS                : direct inversion
                                         in the iterative subspace
                                         using   7 DIIS vectors
                                         safer DIIS on
  Preconditioner : FULL_ALL            : diagonalization, state selective
  Precond_solver : DEFAULT
  stepsize       :    0.15000000                  energy_gap     :    0.08000000
  eps_taylor     :   0.10000E-15                  max_taylor     :             4
  ----------------------------------- OT ---------------------------------------

  Step     Update method      Time    Convergence         Total energy    Change
  ------------------------------------------------------------------------------
  Decoupling Energy:                                               0.0282788120
  Recoupling Energy:                                              -0.0185851027

 *** WARNING in hfx_energy_potential.F:592 :: The Kohn Sham matrix is not  ***
 *** 100% occupied. This may result in incorrect Hartree-Fock results. Try ***
 *** to decrease EPS_PGF_ORB and EPS_FILTER_MATRIX in the QS section. For  ***
 *** more information see FAQ: https://www.cp2k.org/faq:hfx_eps_warning    ***

     1 OT DIIS     0.15E+00    2.0     0.00178505      -145.1177796848 -1.45E+02
  Decoupling Energy:                                               0.0282660165
  Recoupling Energy:                                              -0.0185789958
     2 OT DIIS     0.15E+00    1.3     0.00077806      -145.1228048706 -5.03E-03
  Decoupling Energy:                                               0.0282765379
  Recoupling Energy:                                              -0.0185847885
     3 OT DIIS     0.15E+00    1.3     0.00056526      -145.1236580582 -8.53E-04
  Decoupling Energy:                                               0.0282701704
  Recoupling Energy:                                              -0.0185812489
     4 OT DIIS     0.15E+00    1.3     0.00008093      -145.1238732849 -2.15E-04
  Decoupling Energy:                                               0.0282698834
  Recoupling Energy:                                              -0.0185814167
     5 OT DIIS     0.15E+00    1.3     0.00002387      -145.1238785701 -5.29E-06
  Decoupling Energy:                                               0.0282700786
  Recoupling Energy:                                              -0.0185814153
     6 OT DIIS     0.15E+00    1.3     0.00001026      -145.1238791557 -5.86E-07
  Decoupling Energy:                                               0.0282700325
  Recoupling Energy:                                              -0.0185814249
     7 OT DIIS     0.15E+00    1.3     0.00000268      -145.1238792666 -1.11E-07
  Decoupling Energy:                                               0.0282700482
  Recoupling Energy:                                              -0.0185814350
     8 OT DIIS     0.15E+00    1.4     0.00000096      -145.1238792764 -9.73E-09

  *** SCF run converged in     8 steps ***


  Electronic density on regular grids:        -94.0000121869       -0.0000121869
  Core density on regular grids:               94.9999999999       -0.0000000001
  Total charge density on r-space grids:        0.9999878130
  Total charge density g-space grids:           0.9999878130

  Overlap energy of the core charge distribution:               0.00001160790939
  Self energy of the core charge distribution:               -359.57183942644110
  Core Hamiltonian energy:                                    110.75386737204322
  Hartree energy:                                             145.60013485338231
  Exchange-correlation energy:                                -35.10793801873192
  Hartree-Fock Exchange energy:                                -7.83496081477839
  QM/MM Electrostatic energy:                                   1.03684515025805

  Total energy:                                              -145.12387927635842

  outer SCF iter =    1 RMS gradient =   0.96E-06 energy =       -145.1238792764
  outer SCF loop converged in   1 iterations or    8 steps

  Decoupling Energy:                                               0.0282700460
  Recoupling Energy:                                              -0.0185814297

 ENERGY| Total FORCE_EVAL ( QMMM ) energy [a.u.]:           -144.452941336098917

 MD| ***************************************************************************
 MD| Step number                                                               5
 MD| Time [fs]                                                          5.000000
 MD| Conserved quantity [hartree]                            -0.116721645883E+03
 MD| ---------------------------------------------------------------------------
 MD|                                          Instantaneous             Averages
 MD| CPU time per MD step [s]                     35.060757            43.539162
 MD| Energy drift per atom [K]          -0.740939433135E+02  -0.164478931377E+03
 MD| Potential energy [hartree]         -0.144452941336E+03  -0.152097295739E+03
 MD| Total kinetic energy [hartree]      0.277312954535E+02   0.315850308002E+02
 MD| QM kinetic energy [hartree]         0.356972184064E+00   0.316926175623E+00
 MD| Total temperature [K]                       812.511256           925.423519
 MD| QM temperature [K]                         2210.250309          1962.299049
 MD| ***************************************************************************

  Translating the system in order to center the QM fragment in the QM box.

 Number of electrons:                                                         94
 Number of occupied orbitals:                                                 47
 Number of molecular orbitals:                                                47

 Number of orbital functions:                                                332
 Number of independent orbital functions:                                    332

 Extrapolation method: ASPC


 SCF WAVEFUNCTION OPTIMIZATION

  ----------------------------------- OT ---------------------------------------
  Minimizer      : DIIS                : direct inversion
                                         in the iterative subspace
                                         using   7 DIIS vectors
                                         safer DIIS on
  Preconditioner : FULL_ALL            : diagonalization, state selective
  Precond_solver : DEFAULT
  stepsize       :    0.15000000                  energy_gap     :    0.08000000
  eps_taylor     :   0.10000E-15                  max_taylor     :             4
  ----------------------------------- OT ---------------------------------------

  Step     Update method      Time    Convergence         Total energy    Change
  ------------------------------------------------------------------------------
  Decoupling Energy:                                               0.0282614495
  Recoupling Energy:                                              -0.0185788725

 *** WARNING in hfx_energy_potential.F:592 :: The Kohn Sham matrix is not  ***
 *** 100% occupied. This may result in incorrect Hartree-Fock results. Try ***
 *** to decrease EPS_PGF_ORB and EPS_FILTER_MATRIX in the QS section. For  ***
 *** more information see FAQ: https://www.cp2k.org/faq:hfx_eps_warning    ***

     1 OT DIIS     0.15E+00    2.1     0.00071991      -144.6502762567 -1.45E+02
  Decoupling Energy:                                               0.0282580450
  Recoupling Energy:                                              -0.0185780118
     2 OT DIIS     0.15E+00    1.4     0.00029741      -144.6510919672 -8.16E-04
  Decoupling Energy:                                               0.0282618118
  Recoupling Energy:                                              -0.0185791240
     3 OT DIIS     0.15E+00    1.4     0.00015491      -144.6512351590 -1.43E-04
  Decoupling Energy:                                               0.0282591196
  Recoupling Energy:                                              -0.0185782432
     4 OT DIIS     0.15E+00    1.4     0.00003691      -144.6512536207 -1.85E-05
  Decoupling Energy:                                               0.0282595261
  Recoupling Energy:                                              -0.0185784364
     5 OT DIIS     0.15E+00    1.4     0.00000936      -144.6512545307 -9.10E-07
  Decoupling Energy:                                               0.0282595387
  Recoupling Energy:                                              -0.0185784084
     6 OT DIIS     0.15E+00    1.4     0.00000481      -144.6512546113 -8.06E-08
  Decoupling Energy:                                               0.0282595480
  Recoupling Energy:                                              -0.0185784261
     7 OT DIIS     0.15E+00    1.4     0.00000141      -144.6512546307 -1.94E-08
  Decoupling Energy:                                               0.0282595413
  Recoupling Energy:                                              -0.0185784223
     8 OT DIIS     0.15E+00    1.4     0.00000056      -144.6512546335 -2.77E-09

  *** SCF run converged in     8 steps ***


  Electronic density on regular grids:        -93.9999787461        0.0000212539
  Core density on regular grids:               94.9999999999       -0.0000000001
  Total charge density on r-space grids:        1.0000212538
  Total charge density g-space grids:           1.0000212538

  Overlap energy of the core charge distribution:               0.00000896923670
  Self energy of the core charge distribution:               -359.57183942644110
  Core Hamiltonian energy:                                    110.65800210066868
  Hartree energy:                                             145.68413123311149
  Exchange-correlation energy:                                -35.07087860985632
  Hartree-Fock Exchange energy:                                -7.82310090858326
  QM/MM Electrostatic energy:                                   1.47242200837114

  Total energy:                                              -144.65125463349267

  outer SCF iter =    1 RMS gradient =   0.56E-06 energy =       -144.6512546335
  outer SCF loop converged in   1 iterations or    8 steps

  Decoupling Energy:                                               0.0282595454
  Recoupling Energy:                                              -0.0185784234

 ENERGY| Total FORCE_EVAL ( QMMM ) energy [a.u.]:           -156.215669572355750

 MD| ***************************************************************************
 MD| Step number                                                               6
 MD| Time [fs]                                                          6.000000
 MD| Conserved quantity [hartree]                            -0.120486438535E+03
 MD| ---------------------------------------------------------------------------
 MD|                                          Instantaneous             Averages
 MD| CPU time per MD step [s]                     35.332368            42.171363
 MD| Energy drift per atom [K]          -0.239530357750E+03  -0.176987502439E+03
 MD| Potential energy [hartree]         -0.156215669572E+03  -0.152783691378E+03
 MD| Total kinetic energy [hartree]      0.357292310376E+02   0.322757308397E+02
 MD| QM kinetic energy [hartree]         0.332174119953E+00   0.319467499678E+00
 MD| Total temperature [K]                      1046.846240           945.660639
 MD| QM temperature [K]                         2056.709133          1978.034063
 MD| ***************************************************************************

 -------------------------------------------------------------------------------
 -                                                                             -
 -                                DBCSR STATISTICS                             -
 -                                                                             -
 -------------------------------------------------------------------------------
 COUNTER                                    TOTAL       BLAS       SMM       ACC
 flops    15 x    15 x    15              3550500       0.0%      0.0%    100.0%
 flops     5 x     5 x    15              6785250       0.0%      0.0%    100.0%
 flops    15 x    15 x    32              7574400       0.0%      0.0%    100.0%
 flops    15 x    32 x    15              7574400       0.0%      0.0%    100.0%
 flops    32 x    15 x    15              7574400       0.0%      0.0%    100.0%
 flops    15 x    15 x     5              8028000       0.0%      0.0%    100.0%
 flops     5 x    15 x    15              9972000       0.0%      0.0%    100.0%
 flops     5 x     5 x    32             14475200       0.0%      0.0%    100.0%
 flops    32 x    32 x    15             16158720       0.0%      0.0%    100.0%
 flops    15 x    32 x    32             16158720       0.0%      0.0%    100.0%
 flops    32 x    15 x    32             16158720       0.0%      0.0%    100.0%
 flops    15 x    32 x     5             17126400       0.0%      0.0%    100.0%
 flops    32 x    15 x     5             17126400       0.0%      0.0%    100.0%
 flops    14 x     5 x    15             20420400       0.0%      0.0%    100.0%
 flops     5 x    14 x    15             20420400       0.0%      0.0%    100.0%
 flops     5 x    32 x    15             20736000       0.0%      0.0%    100.0%
 flops     5 x    15 x    32             20736000       0.0%      0.0%    100.0%
 flops    15 x    15 x    14             25288200       0.0%      0.0%    100.0%
 flops    14 x    15 x    15             31411800       0.0%      0.0%    100.0%
 flops    32 x    32 x    32             34471936       0.0%      0.0%    100.0%
 flops    32 x    32 x     5             36536320       0.0%      0.0%    100.0%
 flops    14 x     5 x    32             43563520       0.0%      0.0%    100.0%
 flops     5 x    14 x    32             43563520       0.0%      0.0%    100.0%
 flops     5 x    32 x    32             45383680       0.0%      0.0%    100.0%
 flops    15 x    32 x    14             53948160       0.0%      0.0%    100.0%
 flops    32 x    15 x    14             53948160       0.0%      0.0%    100.0%
 flops     5 x    15 x     5             55506000       0.0%      0.0%    100.0%
 flops    14 x    32 x    15             65318400       0.0%      0.0%    100.0%
 flops    14 x    15 x    32             65318400       0.0%      0.0%    100.0%
 flops    14 x    14 x    15             68372640       0.0%      0.0%    100.0%
 flops    32 x    32 x    14            115089408       0.0%      0.0%    100.0%
 flops     5 x    32 x     5            118412800       0.0%      0.0%    100.0%
 flops    14 x    32 x    32            142958592       0.0%      0.0%    100.0%
 flops    14 x    14 x    32            145861632       0.0%      0.0%    100.0%
 flops    14 x    15 x     5            176488200       0.0%      0.0%    100.0%
 flops     5 x    15 x    14            176488200       0.0%      0.0%    100.0%
 flops    14 x    32 x     5            376508160       0.0%      0.0%    100.0%
 flops     5 x    32 x    14            376508160       0.0%      0.0%    100.0%
 flops    14 x    15 x    14            558200160       0.0%      0.0%    100.0%
 flops    14 x    32 x    14           1190827008       0.0%      0.0%    100.0%
 flops inhomo. stacks                           0       0.0%      0.0%      0.0%
 flops total                         4.230549E+09       0.0%      0.0%    100.0%
 flops max/rank                    796.099784E+06       0.0%      0.0%    100.0%
 matmuls inhomo. stacks                         0       0.0%      0.0%      0.0%
 matmuls total                             826026       0.0%      0.0%    100.0%
 number of processed stacks                229986       0.0%      0.0%    100.0%
 average stack size                                     0.0       0.0       3.6
 marketing flops                     4.593239E+09
 -------------------------------------------------------------------------------
 # multiplications                           1394
 max memory usage/rank               4.233044E+09
 # max total images/rank                        1
 # max 3D layers                                1
 # MPI messages exchanged                  133824
 MPI messages size (bytes):
  total size                         1.275063E+09
  min size                           0.000000E+00
  max size                          57.800000E+03
  average size                       9.527906E+03
 MPI breakdown and total messages size (bytes):
             size <=      128               76206                        0
       128 < size <=     8192               15906                 70296984
      8192 < size <=    32768               27648                431419392
     32768 < size <=   131072               14064                773346048
    131072 < size <=  4194304                   0                        0
   4194304 < size <= 16777216                   0                        0
  16777216 < size                               0                        0
 -------------------------------------------------------------------------------
 -                                                                             -
 -                      DBCSR MESSAGE PASSING PERFORMANCE                      -
 -                                                                             -
 -------------------------------------------------------------------------------
 ROUTINE             CALLS      AVE VOLUME [Bytes]
 MP_Bcast               41                     12.
 MP_Allreduce         4926                      8.
 MP_Alltoall          5532                   4284.
 MP_ISend            22276                   5714.
 MP_IRecv            22276                   4837.
 -------------------------------------------------------------------------------

 -------------------------------------------------------------------------------
 -                                                                             -
 -                                GRID STATISTICS                              -
 -                                                                             -
 -------------------------------------------------------------------------------
 LP    KERNEL             BACKEND                              COUNT     PERCENT
 1     collocate ortho    GPU                                 387490      21.32%
 1     integrate ortho    GPU                                 366686      20.17%
 2     integrate ortho    GPU                                 253911      13.97%
 2     collocate ortho    GPU                                 236593      13.02%
 0     collocate ortho    GPU                                 206180      11.34%
 0     integrate ortho    GPU                                 182518      10.04%
 3     integrate ortho    GPU                                  86284       4.75%
 3     collocate ortho    GPU                                  66799       3.68%
 4     integrate ortho    GPU                                  14683       0.81%
 4     collocate ortho    GPU                                   7930       0.44%
 0     collocate general  REF                                   3808       0.21%
 1     integrate general  REF                                   3808       0.21%
 5     integrate ortho    GPU                                    910       0.05%
 -------------------------------------------------------------------------------

 MEMORY| Estimated peak process memory [MiB]                                4037

 -------------------------------------------------------------------------------
 -                                                                             -
 -                         MESSAGE PASSING PERFORMANCE                         -
 -                                                                             -
 -------------------------------------------------------------------------------

 ROUTINE             CALLS      AVE VOLUME [Bytes]
 MP_Group                8
 MP_Bcast              740                4304959.
 MP_Allreduce         2430                2235935.
 MP_Sync               427
 MP_Alltoall          1306               97450474.
 MP_ISendRecv         6015                 139515.
 MP_Wait              9504
 MP_comm_split          21
 MP_ISend             2631                3346214.
 MP_IRecv             2624                3352486.
 MP_Recv                21                  31872.
 -------------------------------------------------------------------------------


 -------------------------------------------------------------------------------
 -                                                                             -
 -                           R E F E R E N C E S                               -
 -                                                                             -
 -------------------------------------------------------------------------------
 
 CP2K version 8.2, the CP2K developers group (2021).
 CP2K is freely available from https://www.cp2k.org/ .

 Kuehne,Thomas D.; Iannuzzi,Marcella; Del Ben,Mauro;
 Rybkin,Vladimir V.; Seewald,Patrick; Stein,Frederick; Laino,Teodoro;
 Khaliullin,Rustam Z.; Schuett,Ole; Schiffmann,Florian; Golze,Dorothea;
 Wilhelm,Jan; Chulkov,Sergey; Bani-Hashemian,Mohammad Hossein;
 Weber,Valery; Borstnik,Urban; Taillefumier,Mathieu;
 Jakobovits,Alice Shoshana; Lazzaro,Alfio; Pabst,Hans; Mueller,Tiziano;
 Schade,Robert; Guidon,Manuel; Andermatt,Samuel; Holmberg,Nico;
 Schenter,Gregory K.; Hehn,Anna; Bussy,Augustin; Belleflamme,Fabian;
 Tabacchi,Gloria; Gloess,Andreas; Lass,Michael; Bethune,Iain;
 Mundy,Christopher J.; Plessl,Christian; Watkins,Matt;
 VandeVondele,Joost; Krack,Matthias; Hutter,Juerg. 
 The Journal of Chemical Physics, 152 (19), (2020). 
 CP2K: An electronic structure and molecular dynamics software package -
 Quickstep: Efficient and accurate electronic structure calculations.
 https://doi.org/10.1063/5.0007045

 Schuett, Ole; Messmer, Peter; Hutter, Juerg; VandeVondele, Joost. 
 Electronic Structure Calculations on Graphics Processing Units, John
 Wiley & Sons, Ltd, 173-190 (2016). 
 GPU-Accelerated Sparse Matrix-Matrix Multiplication for
 Linear Scaling Density Functional Theory.
 https://doi.org/10.1002/9781118670712.ch8

 Heinecke, A; Henry, G; Hutchinson, M; Pabst, H. 
 Proceedings of Intl. Supercomputing Conference, 981-991 (2016). 
 LIBXSMM: Accelerating Small Matrix Multiplications
 by Runtime Code Generation.
 https://doi.org/10.1109/SC.2016.83

 Borstnik, U; VandeVondele, J; Weber, V; Hutter, J. 
 PARALLEL COMPUTING, 40 (5-6), 47-58 (2014). 
 Sparse matrix multiplication: The distributed block-compressed sparse
 row library.
 https://doi.org/10.1016/j.parco.2014.03.012

 Hutter, J; Iannuzzi, M; Schiffmann, F; VandeVondele, J. 
 WIREs Comput Mol Sci., 4 (1), 15-25 (2014). 
 CP2K: atomistic simulations of condensed matter systems.
 https://doi.org/10.1002/wcms.1159

 Marek, A; Blum, V; Johanni, R; Havu, V; Lang, B; Auckenthaler, T;
 Heinecke, A; Bungartz, H; Lederer, H. 
 Journal of Physics: Condensed Matter, 26 (21), (2014). 
 The ELPA library: scalable parallel eigenvalue solutions for
 electronic structure
 theory and computational science.
 https://doi.org/10.1088/0953-8984/26/21/213201

 Guidon, M; Hutter, J; VandeVondele, J. 
 JOURNAL OF CHEMICAL THEORY AND COMPUTATION, 5 (11), 3010-3021 (2009). 
 Robust Periodic Hartree-Fock Exchange for Large-Scale Simulations Using
 Gaussian Basis Sets.
 https://doi.org/10.1021/ct900494g

 Guidon, M; Schiffmann, F; Hutter, J; VandeVondele, J. 
 JOURNAL OF CHEMICAL PHYSICS, 128 (21), 214104 (2008). 
 Ab initio molecular dynamics using hybrid density functionals.
 https://doi.org/10.1063/1.2931945

 Kuhne, TD; Krack, M; Mohamed, FR; Parrinello, M. 
 PHYSICAL REVIEW LETTERS, 98 (6), 066401 (2007). 
 Efficient and accurate Car-Parrinello-like approach to
 Born-Oppenheimer molecular dynamics.
 https://doi.org/10.1103/PhysRevLett.98.066401

 Laino, T; Mohamed, F; Laio, A; Parrinello, M. 
 JOURNAL OF CHEMICAL THEORY AND COMPUTATION, 2 (5), 1370-1378 (2006). 
 An efficient linear-scaling electrostatic coupling for treating
 periodic boundary conditions in QM/MM simulations.
 https://doi.org/10.1021/ct6001169

 Laino, T; Mohamed, F; Laio, A; Parrinello, M. 
 JOURNAL OF CHEMICAL THEORY AND COMPUTATION, 1 (6), 1176-1184 (2005). 
 An efficient real space multigrid QM/MM electrostatic coupling.
 https://doi.org/10.1021/ct050123f

 Krack, M. 
 THEORETICAL CHEMISTRY ACCOUNTS, 114 (1-3), 145-152 (2005). 
 Pseudopotentials for H to Kr optimized for gradient-corrected
 exchange-correlation functionals.
 https://doi.org/10.1007/s00214-005-0655-y

 VandeVondele, J; Krack, M; Mohamed, F; Parrinello, M; Chassaing, T;
 Hutter, J. COMPUTER PHYSICS COMMUNICATIONS, 167 (2), 103-128 (2005). 
 QUICKSTEP: Fast and accurate density functional calculations using a
 mixed Gaussian and plane waves approach.
 https://doi.org/10.1016/j.cpc.2004.12.014

 Frigo, M; Johnson, SG. 
 PROCEEDINGS OF THE IEEE, 93 (2), 216-231 (2005). 
 The design and implementation of FFTW3.
 https://doi.org/10.1109/JPROC.2004.840301

 Kolafa, J. 
 JOURNAL OF COMPUTATIONAL CHEMISTRY, 25 (3), 335-342 (2004). 
 Time-reversible always stable predictor-corrector method for molecular dynamics of polarizable molecules.
 https://doi.org/10.1002/jcc.10385

 VandeVondele, J; Hutter, J. 
 JOURNAL OF CHEMICAL PHYSICS, 118 (10), 4365-4369 (2003). 
 An efficient orbital transformation method for electronic structure
 calculations.
 https://doi.org/10.1063/1.1543154

 Hartwigsen, C; Goedecker, S; Hutter, J. 
 PHYSICAL REVIEW B, 58 (7), 3641-3662 (1998). 
 Relativistic separable dual-space Gaussian pseudopotentials from H to Rn.
 https://doi.org/10.1103/PhysRevB.58.3641

 Lippert, G; Hutter, J; Parrinello, M. 
 MOLECULAR PHYSICS, 92 (3), 477-487 (1997). 
 A hybrid Gaussian and plane wave density functional scheme.
 https://doi.org/10.1080/002689797170220

 Goedecker, S; Teter, M; Hutter, J. 
 PHYSICAL REVIEW B, 54 (3), 1703-1710 (1996). 
 Separable dual-space Gaussian pseudopotentials.
 https://doi.org/10.1103/PhysRevB.54.1703

 ESSMANN, U; PERERA, L; BERKOWITZ, ML; DARDEN, T; LEE, H; PEDERSEN, LG. 
 JOURNAL OF CHEMICAL PHYSICS, 103 (19), 8577-8593 (1995). 
 A SMOOTH PARTICLE MESH EWALD METHOD.
 https://doi.org/10.1063/1.470117

 BLOCHL, PE. 
 JOURNAL OF CHEMICAL PHYSICS, 103 (17), 7422-7428 (1995). 
 ELECTROSTATIC DECOUPLING OF PERIODIC IMAGES OF PLANE-WAVE-EXPANDED
 DENSITIES AND DERIVED ATOMIC POINT CHARGES.
 https://doi.org/10.1063/1.470314

 BECKE, AD. PHYSICAL REVIEW A, 38 (6), 3098-3100 (1988). 
 DENSITY-FUNCTIONAL EXCHANGE-ENERGY APPROXIMATION WITH CORRECT
 ASYMPTOTIC-BEHAVIOR.
 https://doi.org/10.1103/PhysRevA.38.3098

 LEE, CT; YANG, WT; PARR, RG. 
 PHYSICAL REVIEW B, 37 (2), 785-789 (1988). 
 DEVELOPMENT OF THE COLLE-SALVETTI CORRELATION-ENERGY FORMULA INTO A
 FUNCTIONAL OF THE ELECTRON-DENSITY.
 https://doi.org/10.1103/PhysRevB.37.785

 VOSKO, SH; WILK, L; NUSAIR, M. 
 CANADIAN JOURNAL OF PHYSICS, 58 (8), 1200-1211 (1980). 
 ACCURATE SPIN-DEPENDENT ELECTRON LIQUID CORRELATION ENERGIES FOR LOCAL
 SPIN-DENSITY CALCULATIONS - A CRITICAL ANALYSIS.
 https://doi.org/10.1139/p80-159


 -------------------------------------------------------------------------------
 -                                                                             -
 -                                T I M I N G                                  -
 -                                                                             -
 -------------------------------------------------------------------------------
 SUBROUTINE                       CALLS  ASD         SELF TIME        TOTAL TIME
                                MAXIMUM       AVERAGE  MAXIMUM  AVERAGE  MAXIMUM
 CP2K                                 1  1.0    0.178    0.220  255.028  255.029
 qs_mol_dyn_low                       1  2.0    0.003    0.003  253.073  253.143
 velocity_verlet                      6  3.0    0.002    0.002  218.724  218.737
 qs_forces                            7  3.9    0.001    0.001  107.977  107.978
 qs_energies                          7  4.9    0.000    0.001   90.257   90.266
 rebuild_ks_matrix                   61  8.6    0.000    0.000   83.909   84.027
 qs_ks_build_kohn_sham_matrix        61  9.6    0.008    0.009   83.909   84.027
 scf_env_do_scf                       7  5.9    0.000    0.001   84.005   84.005
 qmmm_el_coupling                     7  3.9    0.000    0.000   76.674   78.096
 qmmm_elec_with_gaussian              7  4.9    0.084    0.099   76.663   78.087
 scf_env_do_scf_inner_loop           54  7.0    0.001    0.003   66.622   66.629
 qs_ks_update_qs_env                 61  8.0    0.000    0.001   66.245   66.352
 qmmm_forces                          7  3.9    0.001    0.002   64.035   64.035
 pw_integral_ab                    2965  7.5   58.512   62.967   60.053   63.708
 qmmm_forces_with_gaussian            7  4.9    0.105    0.124   59.085   62.181
 pw_transfer                       1297 12.1    0.085    0.094   47.277   48.521
 fft_wrap_pw1pw2                   1079 13.3    0.011    0.012   46.654   47.938
 fft_wrap_pw1pw2_200                685 14.5    0.004    0.004   44.348   45.729
 pw_restrict_s3                      21  5.9    4.158    4.417   38.944   41.739
 qmmm_elec_with_gaussian_low          7  5.9    0.000    0.000   38.248   38.895
 qmmm_elec_gaussian_low_G             7  6.9   35.936   36.748   35.936   36.748
 qs_vxc_create                       61 10.6    0.001    0.002   35.155   35.209
 xc_vxc_pw_create                    61 11.6    1.237    1.364   35.154   35.208
 qmmm_elec_with_gaussian:spline       7  5.9    0.000    0.000   31.503   32.930
 pw_prolongate_s3                    21  6.9    3.319    3.575   31.502   32.930
 pw_cuda_c1dr3d_3d_ps               577 15.6    0.011    0.013   24.820   25.750
 pw_cuda_r3dc1d_3d_ps               502 14.8    0.009    0.010   21.818   23.104
 hfx_ks_matrix                       61 10.6    0.002    0.002   22.402   22.409
 qs_ks_update_qs_env_forces           7  4.9    0.000    0.000   17.668   17.680
 xc_rho_set_and_dset_create          61 12.6    0.836    0.922   16.051   17.599
 init_scf_loop                        7  6.9    0.000    0.000   17.373   17.373
 mp_alltoall_z22v                  1079 17.3   14.523   16.102   14.523   16.102
 qmmm_force_with_gaussian_low         7  5.9    0.000    0.000   14.427   14.903
 qs_rho_update_rho                   61  8.1    0.000    0.000   14.630   14.667
 calculate_rho_elec                  61  9.1    0.866    0.887   14.629   14.666
 x_to_yz                            577 16.6    5.206    6.023   12.397   13.382
 density_rs2pw                       61 10.1    0.003    0.003   12.798   12.997
 mp_sum_dm3                          38  5.7   12.056   12.886   12.056   12.886
 integrate_four_center               61 11.6    2.088    2.634   12.753   12.759
 qmmm_forces_gaussian_low_G           7  6.9   11.993   12.424   11.993   12.424
 yz_to_x                            502 15.8    3.091    3.559   10.423   11.348
 derivatives_four_center              7  8.9    0.021    0.295    9.636    9.636
 sum_up_and_integrate                61 10.6    0.326    0.352    9.541    9.555
 derivatives_four_center_main         7  9.9    0.028    0.049    9.304    9.304
 integrate_v_rspace                  61 11.6    0.002    0.002    9.216    9.264
 derivatives_four_center_bin        846 10.9    8.699    9.061    8.699    9.061
 potential_pw2rs                     61 12.6    0.034    0.040    8.409    8.456
 pw_cuda_sf                         577 16.6    7.459    8.205    7.459    8.205
 integrate_four_center_main          61 12.6    0.037    0.046    7.954    8.200
 qs_ks_ddapc                         61 10.6    0.001    0.001    7.909    8.167
 integrate_four_center_bin         3985 13.6    7.917    8.165    7.917    8.165
 mp_sum_dm                          628  5.2    4.547    8.055    4.547    8.055
 rs_pw_transfer                     530 11.9    0.007    0.008    7.667    7.743
 pw_cuda_fg                         502 15.8    6.967    7.436    6.967    7.436
 dbcsr_multiply_generic            1394 13.0    0.044    0.047    6.927    7.170
 multiply_cannon                   1394 14.0    0.181    0.218    5.078    6.211
 pw_poisson_solve                    68 10.1    2.201    2.518    5.840    5.840
 pw_cuda_ffc                        577 16.6    4.943    5.597    4.943    5.597
 multiply_cannon_loop              1394 15.0    0.141    0.149    4.492    5.550
 fist_calc_energy_force               7  3.9    0.002    0.003    3.665    5.338
 -------------------------------------------------------------------------------

 The number of warnings for this run is : 7
 
 -------------------------------------------------------------------------------
  **** **** ******  **  PROGRAM ENDED AT                 2021-08-19 17:17:31.971
 ***** ** ***  *** **   PROGRAM RAN ON                                    r2i6n2
 **    ****   ******    PROGRAM RAN BY                                    hollyj
 ***** **    ** ** **   PROGRAM PROCESS ID                                 12167
  **** **  *******  **  PROGRAM STOPPED IN /lustre/home/w68/hollyj/CP2K/Cirrus/G
                                           PU/cp2kMD/MQAE-B3LYP-large/6STEPS/4NO
                                           DES/36CPN/10THREADS
