 DBCSR| CPU Multiplication driver                                           XSMM
 DBCSR| Multrec recursion limit                                              512
 DBCSR| Multiplication stack size                                          30000
 DBCSR| Maximum elements for images                                    UNLIMITED
 DBCSR| Multiplicative factor virtual images                                   1
 DBCSR| Use multiplication densification                                       F
 DBCSR| Multiplication size stacks                                             3
 DBCSR| Use memory pool for CPU allocation                                     F
 DBCSR| Number of 3D layers                                               SINGLE
 DBCSR| Use MPI memory allocation                                              F
 DBCSR| Use RMA algorithm                                                      F
 DBCSR| Use Communication thread                                               T
 DBCSR| Communication thread load                                             53
 DBCSR| MPI: My node id                                                        0
 DBCSR| MPI: Number of nodes                                                  16
 DBCSR| OMP: Current number of threads                                        10
 DBCSR| OMP: Max number of threads                                            10
 DBCSR| ACC: Number of devices/node                                            4
 DBCSR| ACC: Number of priority stack-buffers                                 40
 DBCSR| ACC: Number of posterior stack-buffers                                80
 DBCSR| ACC: Number of priority streams                                        4
 DBCSR| ACC: Number of posterior streams                                       4
 DBCSR| ACC: Avoid driver after busy                                           F
 DBCSR| ACC: Process inhomogeneous stacks                                      T
 DBCSR| ACC: Min. flop for processing                                          0
 DBCSR| ACC: Min. flop for sorting                                          4000
 DBCSR| ACC: Number of binning bins                                         4096
 DBCSR| ACC: Size of binning bins                                             16
 DBCSR| Split modifier for TAS multiplication algorithm                  1.0E+00


  **** **** ******  **  PROGRAM STARTED AT               2021-08-19 16:48:01.806
 ***** ** ***  *** **   PROGRAM STARTED ON                                r2i6n2
 **    ****   ******    PROGRAM STARTED BY                                hollyj
 ***** **    ** ** **   PROGRAM PROCESS ID                                 10726
  **** **  *******  **  PROGRAM STARTED IN /lustre/home/w68/hollyj/CP2K/Cirrus/G
                                           PU/cp2kMD/MQAE-B3LYP-large/1STEPS/4NO
                                           DES/36CPN/10THREADS

 CP2K| version string:                                          CP2K version 8.2
 CP2K| source code revision number:                                  git:310b7ab
 CP2K| cp2kflags: omp libint fftw3 libxc elpa parallel mpi3 scalapack cosma pw_c
 CP2K|            uda xsmm cuda_profiling dbcsr_acc spglib mkl grid_cuda
 CP2K| is freely available from                            https://www.cp2k.org/
 CP2K| Program compiled at                          Thu Jul 22 18:07:58 BST 2021
 CP2K| Program compiled on                                                r2i5n7
 CP2K| Program compiled for                                           Cirrus-gcc
 CP2K| Data directory path       /lustre/home/w68/hollyj/CP2K/v8.2/cp2k-8.2/data
 CP2K| Input file name                                             mqae-cp2k.inp

 GLOBAL| Force Environment number                                              1
 GLOBAL| Basis set file name                                     EMSL_BASIS_SETS
 GLOBAL| Potential file name                                           POTENTIAL
 GLOBAL| MM Potential file name                                     MM_POTENTIAL
 GLOBAL| Coordinate file name                                           mqae.pdb
 GLOBAL| Method name                                                        CP2K
 GLOBAL| Project name                                                 MQAE-B3LYP
 GLOBAL| Run type                                                             MD
 GLOBAL| FFT library                                                       FFTW3
 GLOBAL| Diagonalization library                                            ELPA
 GLOBAL| Minimum number of eigenvectors for ELPA usage                        16
 GLOBAL| Orthonormality check for eigenvectors                          DISABLED
 GLOBAL| Matrix multiplication library                                     COSMA
 GLOBAL| All-to-all communication in single precision                          F
 GLOBAL| FFTs using library dependent lengths                                  F
 GLOBAL| Grid backend                                                       AUTO
 GLOBAL| Global print level                                                  LOW
 GLOBAL| MPI I/O enabled                                                       T
 GLOBAL| Total number of message passing processes                            16
 GLOBAL| Number of threads for this process                                   10
 GLOBAL| This output is from process                                           0
 GLOBAL| CPU model name                 Intel(R) Xeon(R) Gold 6248 CPU @ 2.50GHz
 GLOBAL| CPUID                                                              1003

 MEMORY| system memory details [Kb]
 MEMORY|                        rank 0           min           max       average
 MEMORY| MemTotal            394535408     394535400     394535408     394535406
 MEMORY| MemFree             386940344     386776652     386940344     386842704
 MEMORY| Buffers                     0             0             0             0
 MEMORY| Cached                 874828        874828        937064        915768
 MEMORY| Slab                  1065760       1065760       1162348       1120132
 MEMORY| SReclaimable           203116        203116        217204        211896
 MEMORY| MemLikelyFree       388018288     387930920     388018288     387970368



                      ************* ******** ***********   
                     ************* **********************  
                     ****     **** ****      ***********   
                     ******** ****  *******     ****       
                     *******  ****   *******   ****        
                     ****     ****       ****  ****        
                     ****     **** **********  ****        
                      ****     **** ********    ****       
                     FRONTIERS IN SIMULATION TECHNOLOGY    
                                                           
                        C.J. Mundy, S. Balasubramanian,    
                     Ken Bagchi, J. Hutter, Ari Seitsonen  
                      IFW Kuo, T. Laino, J. VandeVondele   
                                 Version 1.0               

                                                           


 EWALD| Summation is done by:                                               SPME
 EWALD| Alpha parameter [       ANGSTROM^-1]                              0.4000
 EWALD| Real Space Cutoff [          ANGSTROM]                            8.4348
 EWALD| G-space max. Miller index                         80        80        80
 EWALD| Spline interpolation order                                             6

 FORCEFIELD| WARNING: A non Critical ForceField parameter is missing! CP2K GOES!
 FORCEFIELD| Non critical parameters are:Urey-Bradley,Torsions,Impropers, Opbends and 1-4
 FORCEFIELD| All missing parameters will not contribute to the potential energy!
 FORCEFIELD| Activate the print key FF_INFO to have a list of missing parameters

 CHARGE_INFO| Total Charge of the Classical System:                     0.000000

 SPLINE_INFO| Generating 465 splines for NONBONDED14 interactions 
              Due to 30 different atomic kinds
  ...46  ...92  ...138  ...184  ...230  ...276  ...322  ...368  ...414  ...460
 SPLINE_INFO| Number of unique splines computed:            22
 SPLINE_INFO| Done

 SPLINE_INFO| Generating 465 splines for NONBONDED interactions 
              Due to 30 different atomic kinds
  ...46  ...92  ...138  ...184  ...230  ...276  ...322  ...368  ...414  ...460
 SPLINE_INFO| Number of unique splines computed:            22
 SPLINE_INFO| Done

 *******************************************************************************
 *******************************************************************************
 **                                                                           **
 **     #####                         ##              ##                      **
 **    ##   ##            ##          ##              ##                      **
 **   ##     ##                       ##            ######                    **
 **   ##     ##  ##   ##  ##   #####  ##  ##   ####   ##    #####    #####    **
 **   ##     ##  ##   ##  ##  ##      ## ##   ##      ##   ##   ##  ##   ##   **
 **   ##  ## ##  ##   ##  ##  ##      ####     ###    ##   ######   ######    **
 **    ##  ###   ##   ##  ##  ##      ## ##      ##   ##   ##       ##        **
 **     #######   #####   ##   #####  ##  ##  ####    ##    #####   ##        **
 **           ##                                                    ##        **
 **                                                                           **
 **                                                ... make the atoms dance   **
 **                                                                           **
 **            Copyright (C) by CP2K developers group (2000-2021)             **
 **                      J. Chem. Phys. 152, 194103 (2020)                    **
 **                                                                           **
 *******************************************************************************


 TOTAL NUMBERS AND MAXIMUM NUMBERS

  Total number of            - Atomic kinds:                                   4
                             - Atoms:                                         34
                             - Shell sets:                                   120
                             - Shells:                                       156
                             - Primitive Cartesian functions:                278
                             - Cartesian basis functions:                    350
                             - Spherical basis functions:                    332

  Maximum angular momentum of- Orbital basis functions:                        2
                             - Local part of the GTH pseudopotential:          2
                             - Non-local part of the GTH pseudopotential:      0


 SCF PARAMETERS         Density guess:                                   RESTART
                        --------------------------------------------------------
                        max_scf:                                              20
                        max_scf_history:                                       0
                        max_diis:                                              4
                        --------------------------------------------------------
                        eps_scf:                                        1.00E-06
                        eps_scf_history:                                0.00E+00
                        eps_diis:                                       1.00E-01
                        eps_eigval:                                     1.00E-05
                        --------------------------------------------------------
                        level_shift [a.u.]:                                 0.00
                        --------------------------------------------------------
                        Outer loop SCF in use 
                        No variables optimised in outer loop
                        eps_scf                                         1.00E-06
                        max_scf                                               20
                        No outer loop optimization
                        step_size                                       5.00E-01

 *******************************************************************************
 *******************************************************************************
 **                                                                           **
 **             #######  ##     ## ##     ## ##     ##                        **
 **            ##     ## ###   ### ###   ### ###   ###                        **
 **            ##     ## #### #### #### #### #### ####                        **
 **            ##     ## ## ### ## ## ### ## ## ### ##                        **
 **            ##  ## ## ##     ## ##     ## ##     ##                        **
 **            ##    ##  ##     ## ##     ## ##     ##  T.Laino and F.Mohamed **
 **             ##### ## ##     ## ##     ## ##     ##  2005 - 2015           **
 **                                                                           **
 **                                                     Calculation Started.. **
 *******************************************************************************
 *******************************************************************************

 MD_PAR| Molecular dynamics protocol (MD input parameters)
 MD_PAR| Ensemble type                                                       NVE
 MD_PAR| Number of time steps                                                  1
 MD_PAR| Time step [fs]                                                 1.000000
 MD_PAR| Temperature [K]                                              300.000000
 MD_PAR| Temperature tolerance [K]                                      0.000000
 MD_PAR| Print MD information every                                    1 step(s)
 MD_PAR| File type   Print frequency [steps]                          File names
 MD_PAR| Coordinates          1                             MQAE-B3LYP-pos-1.xyz
 MD_PAR| Velocities           1                             MQAE-B3LYP-vel-1.xyz
 MD_PAR| Energies             1                                MQAE-B3LYP-1.ener
 MD_PAR| Dump                20                             MQAE-B3LYP-1.restart

 ROT| Rotational analysis information
 ROT| Principal axes and moments of inertia [a.u.]
 ROT|                           1                   2                   3
 ROT| Eigenvalues      8.77944938721E+03   1.29891690960E+07   1.29979485454E+07
 ROT|      x             -0.558379687797      0.617732459818     -0.553731642894
 ROT|      y             -0.569867814832     -0.770688439612     -0.285114016960
 ROT|      z             -0.602878758851      0.156351965563      0.782362617327
 ROT| Number of rotovibrational vectors                                        6

 DOF| Calculation of degrees of freedom
 DOF| Number of atoms                                                       7186
 DOF| Number of intramolecular constraints                                     0
 DOF| Number of intermolecular constraints                                     0
 DOF| Invariants (translations + rotations)                                    3
 DOF| Degrees of freedom                                                   21555

 DOF| Restraints information
 DOF| Number of intramolecular restraints                                      0
 DOF| Number of intermolecular restraints                                      0

 MD_VEL| Velocities initialization
 MD_VEL| Initial temperature [K]                                      300.000000
 MD_VEL| COM velocity            -0.0000000000     0.0000000000    -0.0000000000

  Translating the system in order to center the QM fragment in the QM box.

 Number of electrons:                                                         94
 Number of occupied orbitals:                                                 47
 Number of molecular orbitals:                                                47

 Number of orbital functions:                                                332
 Number of independent orbital functions:                                    332

 Extrapolation method: initial_guess


 SCF WAVEFUNCTION OPTIMIZATION

  ----------------------------------- OT ---------------------------------------
  Minimizer      : DIIS                : direct inversion
                                         in the iterative subspace
                                         using   7 DIIS vectors
                                         safer DIIS on
  Preconditioner : FULL_ALL            : diagonalization, state selective
  Precond_solver : DEFAULT
  stepsize       :    0.15000000                  energy_gap     :    0.08000000
  eps_taylor     :   0.10000E-15                  max_taylor     :             4
  ----------------------------------- OT ---------------------------------------

  Step     Update method      Time    Convergence         Total energy    Change
  ------------------------------------------------------------------------------
  Decoupling Energy:                                               0.0283460848
  Recoupling Energy:                                              -0.0186066200

 *** WARNING in hfx_energy_potential.F:592 :: The Kohn Sham matrix is not  ***
 *** 100% occupied. This may result in incorrect Hartree-Fock results. Try ***
 *** to decrease EPS_PGF_ORB and EPS_FILTER_MATRIX in the QS section. For  ***
 *** more information see FAQ: https://www.cp2k.org/faq:hfx_eps_warning    ***

     1 OT DIIS     0.15E+00    5.8     0.00000025      -146.5977626340 -1.47E+02

  *** SCF run converged in     1 steps ***


  Electronic density on regular grids:        -94.0000165540       -0.0000165540
  Core density on regular grids:               94.9999999999       -0.0000000001
  Total charge density on r-space grids:        0.9999834459
  Total charge density g-space grids:           0.9999834459

  Overlap energy of the core charge distribution:               0.00000599177744
  Self energy of the core charge distribution:               -359.57183942644110
  Core Hamiltonian energy:                                    110.60238234947158
  Hartree energy:                                             145.62298264334402
  Exchange-correlation energy:                                -35.08977447598088
  Hartree-Fock Exchange energy:                                -7.83561671024302
  QM/MM Electrostatic energy:                                  -0.32590300597548

  Total energy:                                              -146.59776263404746

  outer SCF iter =    1 RMS gradient =   0.25E-06 energy =       -146.5977626340
  outer SCF loop converged in   1 iterations or    1 steps

  Decoupling Energy:                                               0.0283460885
  Recoupling Energy:                                              -0.0186066196

 ENERGY| Total FORCE_EVAL ( QMMM ) energy [a.u.]:           -125.274615354026366

 MD_INI| MD initialization
 MD_INI| Potential energy [hartree]                          -0.125274615354E+03
 MD_INI| Total kinetic energy [hartree]                       0.102391057087E+02
 MD_INI| QM kinetic energy [hartree]                          0.538313910515E-01
 MD_INI| Total temperature [K]                                        300.000000
 MD_INI| QM temperature [K]                                           333.305658
 MD_INI| Cell volume [bohr^3]                                 4.911308927827E+05
 MD_INI| Cell volume [ang^3]                                  7.277808868775E+04
 MD_INI| Cell lengths [bohr]      7.88979558E+01  7.88979558E+01  7.88979558E+01
 MD_INI| Cell lengths [ang]       4.17510000E+01  4.17510000E+01  4.17510000E+01
 MD_INI| Cell angles [deg]        9.00000000E+01  9.00000000E+01  9.00000000E+01

  Translating the system in order to center the QM fragment in the QM box.

 Number of electrons:                                                         94
 Number of occupied orbitals:                                                 47
 Number of molecular orbitals:                                                47

 Number of orbital functions:                                                332
 Number of independent orbital functions:                                    332

 Extrapolation method: ASPC


 SCF WAVEFUNCTION OPTIMIZATION

  ----------------------------------- OT ---------------------------------------
  Minimizer      : DIIS                : direct inversion
                                         in the iterative subspace
                                         using   7 DIIS vectors
                                         safer DIIS on
  Preconditioner : FULL_ALL            : diagonalization, state selective
  Precond_solver : DEFAULT
  stepsize       :    0.15000000                  energy_gap     :    0.08000000
  eps_taylor     :   0.10000E-15                  max_taylor     :             4
  ----------------------------------- OT ---------------------------------------

  Step     Update method      Time    Convergence         Total energy    Change
  ------------------------------------------------------------------------------
  Decoupling Energy:                                               0.0283463393
  Recoupling Energy:                                              -0.0186067276

 *** WARNING in hfx_energy_potential.F:592 :: The Kohn Sham matrix is not  ***
 *** 100% occupied. This may result in incorrect Hartree-Fock results. Try ***
 *** to decrease EPS_PGF_ORB and EPS_FILTER_MATRIX in the QS section. For  ***
 *** more information see FAQ: https://www.cp2k.org/faq:hfx_eps_warning    ***

     1 OT DIIS     0.15E+00    2.1     0.00263344      -146.4802776538 -1.46E+02
  Decoupling Energy:                                               0.0283348436
  Recoupling Energy:                                              -0.0186023755
     2 OT DIIS     0.15E+00    1.4     0.00099820      -146.4906369325 -1.04E-02
  Decoupling Energy:                                               0.0283386056
  Recoupling Energy:                                              -0.0186029443
     3 OT DIIS     0.15E+00    1.4     0.00037983      -146.4923378095 -1.70E-03
  Decoupling Energy:                                               0.0283352659
  Recoupling Energy:                                              -0.0186018418
     4 OT DIIS     0.15E+00    1.4     0.00014245      -146.4925388992 -2.01E-04
  Decoupling Energy:                                               0.0283369490
  Recoupling Energy:                                              -0.0186025014
     5 OT DIIS     0.15E+00    1.4     0.00005119      -146.4925548282 -1.59E-05
  Decoupling Energy:                                               0.0283364431
  Recoupling Energy:                                              -0.0186022736
     6 OT DIIS     0.15E+00    1.4     0.00001954      -146.4925572122 -2.38E-06
  Decoupling Energy:                                               0.0283365050
  Recoupling Energy:                                              -0.0186023528
     7 OT DIIS     0.15E+00    1.4     0.00000601      -146.4925575379 -3.26E-07
  Decoupling Energy:                                               0.0283365504
  Recoupling Energy:                                              -0.0186023485
     8 OT DIIS     0.15E+00    1.4     0.00000292      -146.4925575829 -4.50E-08
  Decoupling Energy:                                               0.0283365225
  Recoupling Energy:                                              -0.0186023520
     9 OT DIIS     0.15E+00    1.4     0.00000099      -146.4925575896 -6.71E-09

  *** SCF run converged in     9 steps ***


  Electronic density on regular grids:        -93.9999802765        0.0000197235
  Core density on regular grids:               94.9999999999       -0.0000000001
  Total charge density on r-space grids:        1.0000197234
  Total charge density g-space grids:           1.0000197234

  Overlap energy of the core charge distribution:               0.00003300770850
  Self energy of the core charge distribution:               -359.57183942644110
  Core Hamiltonian energy:                                    110.79302695587597
  Hartree energy:                                             145.52494444475315
  Exchange-correlation energy:                                -35.13662044439587
  Hartree-Fock Exchange energy:                                -7.84755937447858
  QM/MM Electrostatic energy:                                  -0.25454275265163

  Total energy:                                              -146.49255758962957

  outer SCF iter =    1 RMS gradient =   0.99E-06 energy =       -146.4925575896
  outer SCF loop converged in   1 iterations or    9 steps

  Decoupling Energy:                                               0.0283365289
  Recoupling Energy:                                              -0.0186023489

 ENERGY| Total FORCE_EVAL ( QMMM ) energy [a.u.]:           -154.709329666038713

 MD| ***************************************************************************
 MD| Step number                                                               1
 MD| Time [fs]                                                          1.000000
 MD| Conserved quantity [hartree]                            -0.123704268793E+03
 MD| ---------------------------------------------------------------------------
 MD|                                          Instantaneous             Averages
 MD| CPU time per MD step [s]                     73.143328            73.143328
 MD| Energy drift per atom [K]          -0.380931584701E+03   0.000000000000E+00
 MD| Potential energy [hartree]         -0.154709329666E+03  -0.154709329666E+03
 MD| Total kinetic energy [hartree]      0.310050608729E+02   0.310050608729E+02
 MD| QM kinetic energy [hartree]         0.223345352627E+00   0.223345352627E+00
 MD| Total temperature [K]                       908.430729           908.430729
 MD| QM temperature [K]                         1382.878433          1382.878433
 MD| ***************************************************************************

 -------------------------------------------------------------------------------
 -                                                                             -
 -                                DBCSR STATISTICS                             -
 -                                                                             -
 -------------------------------------------------------------------------------
 COUNTER                                    TOTAL       BLAS       SMM       ACC
 flops    15 x    15 x    15               621000       0.0%      0.0%    100.0%
 flops    15 x    15 x    32              1324800       0.0%      0.0%    100.0%
 flops    15 x    32 x    15              1324800       0.0%      0.0%    100.0%
 flops    32 x    15 x    15              1324800       0.0%      0.0%    100.0%
 flops     5 x     5 x    15              1398750       0.0%      0.0%    100.0%
 flops    15 x    15 x     5              1512000       0.0%      0.0%    100.0%
 flops     5 x    15 x    15              1872000       0.0%      0.0%    100.0%
 flops    32 x    32 x    15              2826240       0.0%      0.0%    100.0%
 flops    15 x    32 x    32              2826240       0.0%      0.0%    100.0%
 flops    32 x    15 x    32              2826240       0.0%      0.0%    100.0%
 flops     5 x     5 x    32              2984000       0.0%      0.0%    100.0%
 flops    15 x    32 x     5              3225600       0.0%      0.0%    100.0%
 flops    32 x    15 x     5              3225600       0.0%      0.0%    100.0%
 flops     5 x    32 x    15              3840000       0.0%      0.0%    100.0%
 flops     5 x    15 x    32              3840000       0.0%      0.0%    100.0%
 flops    14 x     5 x    15              4204200       0.0%      0.0%    100.0%
 flops     5 x    14 x    15              4204200       0.0%      0.0%    100.0%
 flops    15 x    15 x    14              4762800       0.0%      0.0%    100.0%
 flops    14 x    15 x    15              5896800       0.0%      0.0%    100.0%
 flops    32 x    32 x    32              6029312       0.0%      0.0%    100.0%
 flops    32 x    32 x     5              6881280       0.0%      0.0%    100.0%
 flops     5 x    32 x    32              8519680       0.0%      0.0%    100.0%
 flops    14 x     5 x    32              8968960       0.0%      0.0%    100.0%
 flops     5 x    14 x    32              8968960       0.0%      0.0%    100.0%
 flops    15 x    32 x    14             10160640       0.0%      0.0%    100.0%
 flops    32 x    15 x    14             10160640       0.0%      0.0%    100.0%
 flops     5 x    15 x     5             10996500       0.0%      0.0%    100.0%
 flops    14 x    32 x    15             12096000       0.0%      0.0%    100.0%
 flops    14 x    15 x    32             12096000       0.0%      0.0%    100.0%
 flops    14 x    14 x    15             14076720       0.0%      0.0%    100.0%
 flops    32 x    32 x    14             21676032       0.0%      0.0%    100.0%
 flops     5 x    32 x     5             23459200       0.0%      0.0%    100.0%
 flops    14 x    32 x    32             26836992       0.0%      0.0%    100.0%
 flops    14 x    14 x    32             30030336       0.0%      0.0%    100.0%
 flops    14 x    15 x     5             34935600       0.0%      0.0%    100.0%
 flops     5 x    15 x    14             34935600       0.0%      0.0%    100.0%
 flops    14 x    32 x     5             74529280       0.0%      0.0%    100.0%
 flops     5 x    32 x    14             74529280       0.0%      0.0%    100.0%
 flops    14 x    15 x    14            110496960       0.0%      0.0%    100.0%
 flops    14 x    32 x    14            235726848       0.0%      0.0%    100.0%
 flops inhomo. stacks                           0       0.0%      0.0%      0.0%
 flops total                       830.150890E+06       0.0%      0.0%    100.0%
 flops max/rank                    154.418684E+06       0.0%      0.0%    100.0%
 matmuls inhomo. stacks                         0       0.0%      0.0%      0.0%
 matmuls total                             163362       0.0%      0.0%    100.0%
 number of processed stacks                 45226       0.0%      0.0%    100.0%
 average stack size                                     0.0       0.0       3.6
 marketing flops                   905.908480E+06
 -------------------------------------------------------------------------------
 # multiplications                            260
 max memory usage/rank               4.030919E+09
 # max total images/rank                        1
 # max 3D layers                                1
 # MPI messages exchanged                   24960
 MPI messages size (bytes):
  total size                       248.695536E+06
  min size                           0.000000E+00
  max size                          57.800000E+03
  average size                       9.963764E+03
 MPI breakdown and total messages size (bytes):
             size <=      128               14028                        0
       128 < size <=     8192                2820                 12465696
      8192 < size <=    32768                5328                 83138112
     32768 < size <=   131072                2784                153091728
    131072 < size <=  4194304                   0                        0
   4194304 < size <= 16777216                   0                        0
  16777216 < size                               0                        0
 -------------------------------------------------------------------------------
 -                                                                             -
 -                      DBCSR MESSAGE PASSING PERFORMANCE                      -
 -                                                                             -
 -------------------------------------------------------------------------------
 ROUTINE             CALLS      AVE VOLUME [Bytes]
 MP_Bcast               41                     12.
 MP_Allreduce          998                     10.
 MP_Alltoall          1157                   4900.
 MP_ISend             4152                   5906.
 MP_IRecv             4152                   5037.
 -------------------------------------------------------------------------------

 -------------------------------------------------------------------------------
 -                                                                             -
 -                                GRID STATISTICS                              -
 -                                                                             -
 -------------------------------------------------------------------------------
 LP    KERNEL             BACKEND                              COUNT     PERCENT
 1     collocate ortho    GPU                                  76356      21.30%
 1     integrate ortho    GPU                                  70404      19.64%
 2     integrate ortho    GPU                                  51500      14.36%
 2     collocate ortho    GPU                                  46532      12.98%
 0     collocate ortho    GPU                                  40620      11.33%
 0     integrate ortho    GPU                                  33850       9.44%
 3     integrate ortho    GPU                                  18692       5.21%
 3     collocate ortho    GPU                                  13124       3.66%
 4     integrate ortho    GPU                                   3486       0.97%
 4     collocate ortho    GPU                                   1560       0.44%
 0     collocate general  REF                                   1088       0.30%
 1     integrate general  REF                                   1088       0.30%
 5     integrate ortho    GPU                                    260       0.07%
 -------------------------------------------------------------------------------

 MEMORY| Estimated peak process memory [MiB]                                3847

 -------------------------------------------------------------------------------
 -                                                                             -
 -                         MESSAGE PASSING PERFORMANCE                         -
 -                                                                             -
 -------------------------------------------------------------------------------

 ROUTINE             CALLS      AVE VOLUME [Bytes]
 MP_Group                8
 MP_Bcast              488                6527084.
 MP_Allreduce          826                1881222.
 MP_Sync                97
 MP_Alltoall           270               93580653.
 MP_ISendRecv         1230                 134749.
 MP_Wait              1988
 MP_comm_split           6
 MP_ISend              578                3115718.
 MP_IRecv              576                3123081.
 MP_Recv                 6                  31872.
 -------------------------------------------------------------------------------


 -------------------------------------------------------------------------------
 -                                                                             -
 -                           R E F E R E N C E S                               -
 -                                                                             -
 -------------------------------------------------------------------------------
 
 CP2K version 8.2, the CP2K developers group (2021).
 CP2K is freely available from https://www.cp2k.org/ .

 Kuehne,Thomas D.; Iannuzzi,Marcella; Del Ben,Mauro;
 Rybkin,Vladimir V.; Seewald,Patrick; Stein,Frederick; Laino,Teodoro;
 Khaliullin,Rustam Z.; Schuett,Ole; Schiffmann,Florian; Golze,Dorothea;
 Wilhelm,Jan; Chulkov,Sergey; Bani-Hashemian,Mohammad Hossein;
 Weber,Valery; Borstnik,Urban; Taillefumier,Mathieu;
 Jakobovits,Alice Shoshana; Lazzaro,Alfio; Pabst,Hans; Mueller,Tiziano;
 Schade,Robert; Guidon,Manuel; Andermatt,Samuel; Holmberg,Nico;
 Schenter,Gregory K.; Hehn,Anna; Bussy,Augustin; Belleflamme,Fabian;
 Tabacchi,Gloria; Gloess,Andreas; Lass,Michael; Bethune,Iain;
 Mundy,Christopher J.; Plessl,Christian; Watkins,Matt;
 VandeVondele,Joost; Krack,Matthias; Hutter,Juerg. 
 The Journal of Chemical Physics, 152 (19), (2020). 
 CP2K: An electronic structure and molecular dynamics software package -
 Quickstep: Efficient and accurate electronic structure calculations.
 https://doi.org/10.1063/5.0007045

 Schuett, Ole; Messmer, Peter; Hutter, Juerg; VandeVondele, Joost. 
 Electronic Structure Calculations on Graphics Processing Units, John
 Wiley & Sons, Ltd, 173-190 (2016). 
 GPU-Accelerated Sparse Matrix-Matrix Multiplication for
 Linear Scaling Density Functional Theory.
 https://doi.org/10.1002/9781118670712.ch8

 Heinecke, A; Henry, G; Hutchinson, M; Pabst, H. 
 Proceedings of Intl. Supercomputing Conference, 981-991 (2016). 
 LIBXSMM: Accelerating Small Matrix Multiplications
 by Runtime Code Generation.
 https://doi.org/10.1109/SC.2016.83

 Borstnik, U; VandeVondele, J; Weber, V; Hutter, J. 
 PARALLEL COMPUTING, 40 (5-6), 47-58 (2014). 
 Sparse matrix multiplication: The distributed block-compressed sparse
 row library.
 https://doi.org/10.1016/j.parco.2014.03.012

 Hutter, J; Iannuzzi, M; Schiffmann, F; VandeVondele, J. 
 WIREs Comput Mol Sci., 4 (1), 15-25 (2014). 
 CP2K: atomistic simulations of condensed matter systems.
 https://doi.org/10.1002/wcms.1159

 Marek, A; Blum, V; Johanni, R; Havu, V; Lang, B; Auckenthaler, T;
 Heinecke, A; Bungartz, H; Lederer, H. 
 Journal of Physics: Condensed Matter, 26 (21), (2014). 
 The ELPA library: scalable parallel eigenvalue solutions for
 electronic structure
 theory and computational science.
 https://doi.org/10.1088/0953-8984/26/21/213201

 Guidon, M; Hutter, J; VandeVondele, J. 
 JOURNAL OF CHEMICAL THEORY AND COMPUTATION, 5 (11), 3010-3021 (2009). 
 Robust Periodic Hartree-Fock Exchange for Large-Scale Simulations Using
 Gaussian Basis Sets.
 https://doi.org/10.1021/ct900494g

 Guidon, M; Schiffmann, F; Hutter, J; VandeVondele, J. 
 JOURNAL OF CHEMICAL PHYSICS, 128 (21), 214104 (2008). 
 Ab initio molecular dynamics using hybrid density functionals.
 https://doi.org/10.1063/1.2931945

 Kuhne, TD; Krack, M; Mohamed, FR; Parrinello, M. 
 PHYSICAL REVIEW LETTERS, 98 (6), 066401 (2007). 
 Efficient and accurate Car-Parrinello-like approach to
 Born-Oppenheimer molecular dynamics.
 https://doi.org/10.1103/PhysRevLett.98.066401

 Laino, T; Mohamed, F; Laio, A; Parrinello, M. 
 JOURNAL OF CHEMICAL THEORY AND COMPUTATION, 2 (5), 1370-1378 (2006). 
 An efficient linear-scaling electrostatic coupling for treating
 periodic boundary conditions in QM/MM simulations.
 https://doi.org/10.1021/ct6001169

 Laino, T; Mohamed, F; Laio, A; Parrinello, M. 
 JOURNAL OF CHEMICAL THEORY AND COMPUTATION, 1 (6), 1176-1184 (2005). 
 An efficient real space multigrid QM/MM electrostatic coupling.
 https://doi.org/10.1021/ct050123f

 Krack, M. 
 THEORETICAL CHEMISTRY ACCOUNTS, 114 (1-3), 145-152 (2005). 
 Pseudopotentials for H to Kr optimized for gradient-corrected
 exchange-correlation functionals.
 https://doi.org/10.1007/s00214-005-0655-y

 VandeVondele, J; Krack, M; Mohamed, F; Parrinello, M; Chassaing, T;
 Hutter, J. COMPUTER PHYSICS COMMUNICATIONS, 167 (2), 103-128 (2005). 
 QUICKSTEP: Fast and accurate density functional calculations using a
 mixed Gaussian and plane waves approach.
 https://doi.org/10.1016/j.cpc.2004.12.014

 Frigo, M; Johnson, SG. 
 PROCEEDINGS OF THE IEEE, 93 (2), 216-231 (2005). 
 The design and implementation of FFTW3.
 https://doi.org/10.1109/JPROC.2004.840301

 Kolafa, J. 
 JOURNAL OF COMPUTATIONAL CHEMISTRY, 25 (3), 335-342 (2004). 
 Time-reversible always stable predictor-corrector method for molecular dynamics of polarizable molecules.
 https://doi.org/10.1002/jcc.10385

 VandeVondele, J; Hutter, J. 
 JOURNAL OF CHEMICAL PHYSICS, 118 (10), 4365-4369 (2003). 
 An efficient orbital transformation method for electronic structure
 calculations.
 https://doi.org/10.1063/1.1543154

 Hartwigsen, C; Goedecker, S; Hutter, J. 
 PHYSICAL REVIEW B, 58 (7), 3641-3662 (1998). 
 Relativistic separable dual-space Gaussian pseudopotentials from H to Rn.
 https://doi.org/10.1103/PhysRevB.58.3641

 Lippert, G; Hutter, J; Parrinello, M. 
 MOLECULAR PHYSICS, 92 (3), 477-487 (1997). 
 A hybrid Gaussian and plane wave density functional scheme.
 https://doi.org/10.1080/002689797170220

 Goedecker, S; Teter, M; Hutter, J. 
 PHYSICAL REVIEW B, 54 (3), 1703-1710 (1996). 
 Separable dual-space Gaussian pseudopotentials.
 https://doi.org/10.1103/PhysRevB.54.1703

 ESSMANN, U; PERERA, L; BERKOWITZ, ML; DARDEN, T; LEE, H; PEDERSEN, LG. 
 JOURNAL OF CHEMICAL PHYSICS, 103 (19), 8577-8593 (1995). 
 A SMOOTH PARTICLE MESH EWALD METHOD.
 https://doi.org/10.1063/1.470117

 BLOCHL, PE. 
 JOURNAL OF CHEMICAL PHYSICS, 103 (17), 7422-7428 (1995). 
 ELECTROSTATIC DECOUPLING OF PERIODIC IMAGES OF PLANE-WAVE-EXPANDED
 DENSITIES AND DERIVED ATOMIC POINT CHARGES.
 https://doi.org/10.1063/1.470314

 BECKE, AD. PHYSICAL REVIEW A, 38 (6), 3098-3100 (1988). 
 DENSITY-FUNCTIONAL EXCHANGE-ENERGY APPROXIMATION WITH CORRECT
 ASYMPTOTIC-BEHAVIOR.
 https://doi.org/10.1103/PhysRevA.38.3098

 LEE, CT; YANG, WT; PARR, RG. 
 PHYSICAL REVIEW B, 37 (2), 785-789 (1988). 
 DEVELOPMENT OF THE COLLE-SALVETTI CORRELATION-ENERGY FORMULA INTO A
 FUNCTIONAL OF THE ELECTRON-DENSITY.
 https://doi.org/10.1103/PhysRevB.37.785

 VOSKO, SH; WILK, L; NUSAIR, M. 
 CANADIAN JOURNAL OF PHYSICS, 58 (8), 1200-1211 (1980). 
 ACCURATE SPIN-DEPENDENT ELECTRON LIQUID CORRELATION ENERGIES FOR LOCAL
 SPIN-DENSITY CALCULATIONS - A CRITICAL ANALYSIS.
 https://doi.org/10.1139/p80-159


 -------------------------------------------------------------------------------
 -                                                                             -
 -                                T I M I N G                                  -
 -                                                                             -
 -------------------------------------------------------------------------------
 SUBROUTINE                       CALLS  ASD         SELF TIME        TOTAL TIME
                                MAXIMUM       AVERAGE  MAXIMUM  AVERAGE  MAXIMUM
 CP2K                                 1  1.0    0.182    0.205   76.538   76.539
 qs_mol_dyn_low                       1  2.0    0.003    0.003   73.275   74.636
 velocity_verlet                      1  3.0    0.000    0.000   38.645   38.646
 qs_forces                            2  3.5    0.000    0.000   30.604   30.605
 qs_energies                          2  4.5    0.000    0.000   24.829   24.833
 qmmm_el_coupling                     2  3.5    0.000    0.000   22.302   22.867
 qmmm_elec_with_gaussian              2  4.5    0.024    0.026   22.299   22.864
 scf_env_do_scf                       2  5.5    0.000    0.000   21.191   21.191
 rebuild_ks_matrix                   12  8.3    0.000    0.000   20.728   20.754
 qs_ks_build_kohn_sham_matrix        12  9.3    0.002    0.002   20.728   20.754
 qmmm_forces                          2  3.5    0.000    0.001   18.531   18.532
 qmmm_forces_with_gaussian            2  4.5    0.030    0.036   16.881   18.049
 pw_integral_ab                     876  6.9   15.877   17.439   16.275   17.641
 qs_ks_update_qs_env                 12  7.8    0.000    0.000   14.968   14.991
 scf_env_do_scf_inner_loop           10  6.9    0.000    0.001   12.340   13.782
 pw_restrict_s3                       6  5.5    1.220    1.360   10.835   11.858
 qmmm_elec_with_gaussian_low          2  5.5    0.000    0.000   11.016   11.181
 qmmm_elec_gaussian_low_G             2  6.5   10.305   10.451   10.305   10.451
 pw_transfer                        262 11.7    0.017    0.019    9.857   10.262
 fft_wrap_pw1pw2                    216 12.9    0.002    0.003    9.721   10.142
 qmmm_elec_with_gaussian:spline       2  5.5    0.000    0.000    9.080    9.653
 pw_prolongate_s3                     6  6.5    0.970    1.069    9.080    9.653
 fft_wrap_pw1pw2_200                136 14.2    0.001    0.001    9.014    9.358
 hfx_ks_matrix                       12 10.3    0.000    0.000    8.186    8.190
 init_scf_loop                        2  6.5    0.000    0.000    7.407    7.408
 qs_vxc_create                       12 10.3    0.000    0.000    7.165    7.175
 xc_vxc_pw_create                    12 11.3    0.242    0.254    7.165    7.175
 qs_ks_update_qs_env_forces           2  4.5    0.000    0.000    5.760    5.763
 pw_cuda_c1dr3d_3d_ps               116 15.2    0.002    0.003    5.057    5.454
 pw_cuda_r3dc1d_3d_ps               100 14.6    0.002    0.002    4.660    4.890
 integrate_four_center               12 11.3    0.587    0.914    4.795    4.799
 qmmm_force_with_gaussian_low         2  5.5    0.000    0.000    4.272    4.776
 dbcsr_multiply_generic             260 12.8    0.008    0.009    4.462    4.567
 multiply_cannon                    260 13.8    0.045    0.059    3.683    4.316
 mp_sum_dm3                          13  5.2    3.898    4.158    3.898    4.158
 multiply_cannon_loop               260 14.8    0.028    0.030    3.530    4.132
 qmmm_forces_gaussian_low_G           2  6.5    3.563    3.829    3.563    3.829
 xc_rho_set_and_dset_create          12 12.3    0.176    0.212    3.310    3.597
 mp_sum_dm                          178  4.9    1.498    3.447    1.498    3.447
 mp_alltoall_z22v                   216 16.9    2.922    3.409    2.922    3.409
 derivatives_four_center              2  8.5    0.021    0.293    3.389    3.389
 multiply_cannon_multrec           1040 15.8    1.622    3.073    2.026    3.264
 derivatives_four_center_main         2  9.5    0.010    0.015    3.078    3.078
 qs_rho_update_rho                   12  7.9    0.000    0.000    3.033    3.069
 calculate_rho_elec                  12  8.9    0.170    0.175    3.033    3.069
 x_to_yz                            116 16.2    1.119    1.543    2.570    3.061
 init_scf_run                         2  5.5    0.000    0.000    3.027    3.027
 scf_env_initial_rho_setup            2  6.5    0.000    0.000    3.026    3.027
 derivatives_four_center_bin        435 10.2    2.597    2.969    2.597    2.969
 density_rs2pw                       12  9.9    0.001    0.001    2.627    2.746
 mp_waitall_1                     13890 16.7    1.016    2.528    1.016    2.528
 calculate_first_density_matrix       1  7.0    0.000    0.000    2.423    2.460
 yz_to_x                            100 15.6    0.647    0.829    2.117    2.371
 multiply_cannon_metrocomm3        1040 15.8    0.002    0.002    0.731    2.343
 integrate_four_center_main          12 12.3    0.010    0.017    2.158    2.300
 integrate_four_center_bin          889 13.3    2.147    2.295    2.147    2.295
 dbcsr_mm_accdrv_process            622 16.1    0.297    1.639    0.391    2.163
 fist_calc_energy_force               2  3.5    0.001    0.001    1.197    2.003
 sum_up_and_integrate                12 10.3    0.067    0.074    1.926    1.932
 integrate_v_rspace                  12 11.3    0.000    0.000    1.859    1.875
 potential_pw2rs                     12 12.3    0.007    0.008    1.702    1.718
 rs_pw_transfer                     108 11.5    0.002    0.002    1.656    1.693
 copy_dbcsr_to_fm                    28 10.2    0.000    0.000    1.502    1.683
 mp_alltoall_i22                     99 12.9    1.498    1.679    1.498    1.679
 qmmm_env_create                      1  2.0    0.027    0.027    1.673    1.676
 qs_ks_ddapc                         12 10.3    0.000    0.000    1.598    1.669
 dbcsr_desymmetrize_deep             28 11.2    0.001    0.001    1.486    1.667
 calculate_dm_sparse                 12  9.7    0.000    0.000    1.622    1.662
 cp_dbcsr_plus_fm_fm_t_native         4  8.5    0.000    0.000    1.600    1.636
 pw_cuda_sf                         116 16.2    1.462    1.598    1.462    1.598
 mp_sum_l                          1056 10.9    0.740    1.596    0.740    1.596
 pw_cuda_fg                         100 15.6    1.432    1.578    1.432    1.578
 write_mo_set_to_restart             10  7.9    0.002    0.031    0.128    1.571
 write_mo_set_low                     2  8.5    0.000    0.000    0.125    1.539
 cp_fm_write_unformatted              2  9.5    0.125    1.538    0.125    1.538
 -------------------------------------------------------------------------------

 The number of warnings for this run is : 2
 
 -------------------------------------------------------------------------------
  **** **** ******  **  PROGRAM ENDED AT                 2021-08-19 16:49:22.184
 ***** ** ***  *** **   PROGRAM RAN ON                                    r2i6n2
 **    ****   ******    PROGRAM RAN BY                                    hollyj
 ***** **    ** ** **   PROGRAM PROCESS ID                                 10726
  **** **  *******  **  PROGRAM STOPPED IN /lustre/home/w68/hollyj/CP2K/Cirrus/G
                                           PU/cp2kMD/MQAE-B3LYP-large/1STEPS/4NO
                                           DES/36CPN/10THREADS
