 DBCSR| CPU Multiplication driver                                           XSMM
 DBCSR| Multrec recursion limit                                              512
 DBCSR| Multiplication stack size                                          30000
 DBCSR| Maximum elements for images                                    UNLIMITED
 DBCSR| Multiplicative factor virtual images                                   1
 DBCSR| Use multiplication densification                                       F
 DBCSR| Multiplication size stacks                                             3
 DBCSR| Use memory pool for CPU allocation                                     F
 DBCSR| Number of 3D layers                                               SINGLE
 DBCSR| Use MPI memory allocation                                              F
 DBCSR| Use RMA algorithm                                                      F
 DBCSR| Use Communication thread                                               T
 DBCSR| Communication thread load                                             53
 DBCSR| MPI: My node id                                                        0
 DBCSR| MPI: Number of nodes                                                   4
 DBCSR| OMP: Current number of threads                                        10
 DBCSR| OMP: Max number of threads                                            10
 DBCSR| ACC: Number of devices/node                                            4
 DBCSR| ACC: Number of priority stack-buffers                                 40
 DBCSR| ACC: Number of posterior stack-buffers                                80
 DBCSR| ACC: Number of priority streams                                        4
 DBCSR| ACC: Number of posterior streams                                       4
 DBCSR| ACC: Avoid driver after busy                                           F
 DBCSR| ACC: Process inhomogeneous stacks                                      T
 DBCSR| ACC: Min. flop for processing                                          0
 DBCSR| ACC: Min. flop for sorting                                          4000
 DBCSR| ACC: Number of binning bins                                         4096
 DBCSR| ACC: Size of binning bins                                             16
 DBCSR| Split modifier for TAS multiplication algorithm                  1.0E+00


  **** **** ******  **  PROGRAM STARTED AT               2021-07-23 16:33:18.272
 ***** ** ***  *** **   PROGRAM STARTED ON                                r2i5n0
 **    ****   ******    PROGRAM STARTED BY                                hollyj
 ***** **    ** ** **   PROGRAM PROCESS ID                                 15045
  **** **  *******  **  PROGRAM STARTED IN /lustre/home/w68/hollyj/CP2K/Cirrus/G
                                           PU/cp2kMD/CBD_PHY/6STEPS/1NODES/36CPN
                                           /10THREADS

 CP2K| version string:                                          CP2K version 8.2
 CP2K| source code revision number:                                  git:310b7ab
 CP2K| cp2kflags: omp libint fftw3 libxc elpa parallel mpi3 scalapack cosma pw_c
 CP2K|            uda xsmm cuda_profiling dbcsr_acc spglib mkl grid_cuda
 CP2K| is freely available from                            https://www.cp2k.org/
 CP2K| Program compiled at                          Thu Jul 22 18:07:58 BST 2021
 CP2K| Program compiled on                                                r2i5n7
 CP2K| Program compiled for                                           Cirrus-gcc
 CP2K| Data directory path       /lustre/home/w68/hollyj/CP2K/v8.2/cp2k-8.2/data
 CP2K| Input file name                                          CBD_PHY-cp2k.inp

 GLOBAL| Force Environment number                                              1
 GLOBAL| Basis set file name                                        BASIS_MOLOPT
 GLOBAL| Potential file name                                           POTENTIAL
 GLOBAL| MM Potential file name                                     MM_POTENTIAL
 GLOBAL| Coordinate file name                                        CBD_PHY.pdb
 GLOBAL| Method name                                                        CP2K
 GLOBAL| Project name                                                CBD_PHY-PBE
 GLOBAL| Run type                                                             MD
 GLOBAL| FFT library                                                       FFTW3
 GLOBAL| Diagonalization library                                            ELPA
 GLOBAL| Minimum number of eigenvectors for ELPA usage                        16
 GLOBAL| Orthonormality check for eigenvectors                          DISABLED
 GLOBAL| Matrix multiplication library                                     COSMA
 GLOBAL| All-to-all communication in single precision                          F
 GLOBAL| FFTs using library dependent lengths                                  F
 GLOBAL| Grid backend                                                       AUTO
 GLOBAL| Global print level                                                  LOW
 GLOBAL| MPI I/O enabled                                                       T
 GLOBAL| Total number of message passing processes                             4
 GLOBAL| Number of threads for this process                                   10
 GLOBAL| This output is from process                                           0
 GLOBAL| CPU model name                 Intel(R) Xeon(R) Gold 6248 CPU @ 2.50GHz
 GLOBAL| CPUID                                                              1003

 MEMORY| system memory details [Kb]
 MEMORY|                        rank 0           min           max       average
 MEMORY| MemTotal            394535408     394535408     394535408     394535408
 MEMORY| MemFree             387506504     387506504     387506564     387506541
 MEMORY| Buffers                     0             0             0             0
 MEMORY| Cached                1086272       1086268       1086272       1086269
 MEMORY| Slab                   892124        892124        892124        892124
 MEMORY| SReclaimable           168624        168624        168624        168624
 MEMORY| MemLikelyFree       388761400     388761400     388761456     388761434



                      ************* ******** ***********   
                     ************* **********************  
                     ****     **** ****      ***********   
                     ******** ****  *******     ****       
                     *******  ****   *******   ****        
                     ****     ****       ****  ****        
                     ****     **** **********  ****        
                      ****     **** ********    ****       
                     FRONTIERS IN SIMULATION TECHNOLOGY    
                                                           
                        C.J. Mundy, S. Balasubramanian,    
                     Ken Bagchi, J. Hutter, Ari Seitsonen  
                      IFW Kuo, T. Laino, J. VandeVondele   
                                 Version 1.0               

                                                           


 EWALD| Summation is done by:                                               SPME
 EWALD| Alpha parameter [       ANGSTROM^-1]                              0.4000
 EWALD| Real Space Cutoff [          ANGSTROM]                            8.4348
 EWALD| G-space max. Miller index                         80        80        80
 EWALD| Spline interpolation order                                             6

 FORCEFIELD| WARNING: A non Critical ForceField parameter is missing! CP2K GOES!
 FORCEFIELD| Non critical parameters are:Urey-Bradley,Torsions,Impropers, Opbends and 1-4
 FORCEFIELD| All missing parameters will not contribute to the potential energy!
 FORCEFIELD| Activate the print key FF_INFO to have a list of missing parameters

 CHARGE_INFO| Total Charge of the Classical System:                    -0.825808

 SPLINE_INFO| Generating 101926 splines for NONBONDED14 interactions 
              Due to 451 different atomic kinds
  ...10192  ...20384  ...30576  ...40768  ...50960  ...61152  ...71344  ...81536  ...91728  ...101920
 SPLINE_INFO| Number of unique splines computed:            301
 SPLINE_INFO| Done

 SPLINE_INFO| Generating 101926 splines for NONBONDED interactions 
              Due to 451 different atomic kinds
  ...10192  ...20384  ...30576  ...40768  ...50960  ...61152  ...71344  ...81536  ...91728  ...101920
 SPLINE_INFO| Number of unique splines computed:            301
 SPLINE_INFO| Done

 *******************************************************************************
 *******************************************************************************
 **                                                                           **
 **     #####                         ##              ##                      **
 **    ##   ##            ##          ##              ##                      **
 **   ##     ##                       ##            ######                    **
 **   ##     ##  ##   ##  ##   #####  ##  ##   ####   ##    #####    #####    **
 **   ##     ##  ##   ##  ##  ##      ## ##   ##      ##   ##   ##  ##   ##   **
 **   ##  ## ##  ##   ##  ##  ##      ####     ###    ##   ######   ######    **
 **    ##  ###   ##   ##  ##  ##      ## ##      ##   ##   ##       ##        **
 **     #######   #####   ##   #####  ##  ##  ####    ##    #####   ##        **
 **           ##                                                    ##        **
 **                                                                           **
 **                                                ... make the atoms dance   **
 **                                                                           **
 **            Copyright (C) by CP2K developers group (2000-2021)             **
 **                      J. Chem. Phys. 152, 194103 (2020)                    **
 **                                                                           **
 *******************************************************************************


 TOTAL NUMBERS AND MAXIMUM NUMBERS

  Total number of            - Atomic kinds:                                   5
                             - Atoms:                                         68
                             - Shell sets:                                    68
                             - Shells:                                       274
                             - Primitive Cartesian functions:                476
                             - Cartesian basis functions:                    655
                             - Spherical basis functions:                    620

  Maximum angular momentum of- Orbital basis functions:                        2
                             - Local part of the GTH pseudopotential:          2
                             - Non-local part of the GTH pseudopotential:      0


 SCF PARAMETERS         Density guess:                                   RESTART
                        --------------------------------------------------------
                        max_scf:                                             300
                        max_scf_history:                                       0
                        max_diis:                                              4
                        --------------------------------------------------------
                        eps_scf:                                        1.00E-06
                        eps_scf_history:                                0.00E+00
                        eps_diis:                                       1.00E-01
                        eps_eigval:                                     1.00E-05
                        --------------------------------------------------------
                        level_shift [a.u.]:                                 0.00
                        --------------------------------------------------------
                        No outer SCF

 *******************************************************************************
 *******************************************************************************
 **                                                                           **
 **             #######  ##     ## ##     ## ##     ##                        **
 **            ##     ## ###   ### ###   ### ###   ###                        **
 **            ##     ## #### #### #### #### #### ####                        **
 **            ##     ## ## ### ## ## ### ## ## ### ##                        **
 **            ##  ## ## ##     ## ##     ## ##     ##                        **
 **            ##    ##  ##     ## ##     ## ##     ##  T.Laino and F.Mohamed **
 **             ##### ## ##     ## ##     ## ##     ##  2005 - 2015           **
 **                                                                           **
 **                                                     Calculation Started.. **
 *******************************************************************************
 *******************************************************************************

 MD_PAR| Molecular dynamics protocol (MD input parameters)
 MD_PAR| Ensemble type                                                       NVE
 MD_PAR| Number of time steps                                                  6
 MD_PAR| Time step [fs]                                                 1.000000
 MD_PAR| Temperature [K]                                              300.000000
 MD_PAR| Temperature tolerance [K]                                      0.000000
 MD_PAR| Print MD information every                                    1 step(s)
 MD_PAR| File type   Print frequency [steps]                          File names
 MD_PAR| Coordinates          1                            CBD_PHY-PBE-pos-1.xyz
 MD_PAR| Velocities           1                            CBD_PHY-PBE-vel-1.xyz
 MD_PAR| Energies             1                               CBD_PHY-PBE-1.ener
 MD_PAR| Dump                20                            CBD_PHY-PBE-1.restart

 ROT| Rotational analysis information
 ROT| Principal axes and moments of inertia [a.u.]
 ROT|                           1                   2                   3
 ROT| Eigenvalues      7.21623863333E+03   6.33320921951E+08   6.33322441751E+08
 ROT|      x              0.594439314747      0.755242083864      0.276136371824
 ROT|      y             -0.607310314858      0.646719561172     -0.461441210410
 ROT|      z             -0.527082614540      0.106598329996      0.843101840522
 ROT| Number of rotovibrational vectors                                        6

 DOF| Calculation of degrees of freedom
 DOF| Number of atoms                                                     167923
 DOF| Number of intramolecular constraints                                     0
 DOF| Number of intermolecular constraints                                     0
 DOF| Invariants (translations + rotations)                                    3
 DOF| Degrees of freedom                                                  503766

 DOF| Restraints information
 DOF| Number of intramolecular restraints                                      0
 DOF| Number of intermolecular restraints                                      0

 MD_VEL| Velocities initialization
 MD_VEL| Initial temperature [K]                                      300.000000
 MD_VEL| COM velocity            -0.0000000000     0.0000000000     0.0000000000

  Translating the system in order to center the QM fragment in the QM box.

 Number of electrons:                                                        180
 Number of occupied orbitals:                                                 90
 Number of molecular orbitals:                                                90

 Number of orbital functions:                                                620
 Number of independent orbital functions:                                    620

 Extrapolation method: initial_guess


 SCF WAVEFUNCTION OPTIMIZATION

  ----------------------------------- OT ---------------------------------------
  Minimizer      : DIIS                : direct inversion
                                         in the iterative subspace
                                         using   7 DIIS vectors
                                         safer DIIS on
  Preconditioner : FULL_ALL            : diagonalization, state selective
  Precond_solver : DEFAULT
  stepsize       :    0.15000000                  energy_gap     :    0.08000000
  eps_taylor     :   0.10000E-15                  max_taylor     :             4
  ----------------------------------- OT ---------------------------------------

  Step     Update method      Time    Convergence         Total energy    Change
  ------------------------------------------------------------------------------
  Decoupling Energy:                                               0.0370860481
  Recoupling Energy:                                              -0.0063743250
     1 OT DIIS     0.15E+00    8.8     0.00001029      -256.0303947190 -2.56E+02
  Decoupling Energy:                                               0.0370861892
  Recoupling Energy:                                              -0.0063743257
     2 OT DIIS     0.15E+00    3.4     0.00000514      -256.0303952911 -5.72E-07
  Decoupling Energy:                                               0.0370855926
  Recoupling Energy:                                              -0.0063743192
     3 OT DIIS     0.15E+00    3.3     0.00000568      -256.0303953556 -6.45E-08
  Decoupling Energy:                                               0.0370861498
  Recoupling Energy:                                              -0.0063743254
     4 OT DIIS     0.15E+00    3.3     0.00000161      -256.0303954143 -5.87E-08
  Decoupling Energy:                                               0.0370859310
  Recoupling Energy:                                              -0.0063743228
     5 OT DIIS     0.15E+00    3.3     0.00000021      -256.0303954186 -4.22E-09

  *** SCF run converged in     5 steps ***


  Electronic density on regular grids:       -179.9999999994        0.0000000006
  Core density on regular grids:              180.9999999999       -0.0000000001
  Total charge density on r-space grids:        1.0000000005
  Total charge density g-space grids:           1.0000000005

  Overlap energy of the core charge distribution:               0.00001951532734
  Self energy of the core charge distribution:               -615.71576003586028
  Core Hamiltonian energy:                                    191.69815045126501
  Hartree energy:                                             247.57404799184587
  Exchange-correlation energy:                                -79.63275547082578
  QM/MM Electrostatic energy:                                   0.04590212969351

  Total energy:                                              -256.03039541855429
  Decoupling Energy:                                               0.0370859745
  Recoupling Energy:                                              -0.0063743233

 ENERGY| Total FORCE_EVAL ( QMMM ) energy [a.u.]:          -1088.195362351674930

 MD_INI| MD initialization
 MD_INI| Potential energy [hartree]                          -0.108819536235E+04
 MD_INI| Total kinetic energy [hartree]                       0.239300084734E+03
 MD_INI| QM kinetic energy [hartree]                          0.106639360339E+00
 MD_INI| Total temperature [K]                                        300.000000
 MD_INI| QM temperature [K]                                           330.137318
 MD_INI| Cell volume [bohr^3]                                 1.137316355424E+07
 MD_INI| Cell volume [ang^3]                                  1.685328937712E+06
 MD_INI| Cell lengths [bohr]      2.24884969E+02  2.24884969E+02  2.24884969E+02
 MD_INI| Cell lengths [ang]       1.19004000E+02  1.19004000E+02  1.19004000E+02
 MD_INI| Cell angles [deg]        9.00000000E+01  9.00000000E+01  9.00000000E+01

  Translating the system in order to center the QM fragment in the QM box.

 Number of electrons:                                                        180
 Number of occupied orbitals:                                                 90
 Number of molecular orbitals:                                                90

 Number of orbital functions:                                                620
 Number of independent orbital functions:                                    620

 Extrapolation method: ASPC


 SCF WAVEFUNCTION OPTIMIZATION

  ----------------------------------- OT ---------------------------------------
  Minimizer      : DIIS                : direct inversion
                                         in the iterative subspace
                                         using   7 DIIS vectors
                                         safer DIIS on
  Preconditioner : FULL_ALL            : diagonalization, state selective
  Precond_solver : DEFAULT
  stepsize       :    0.15000000                  energy_gap     :    0.08000000
  eps_taylor     :   0.10000E-15                  max_taylor     :             4
  ----------------------------------- OT ---------------------------------------

  Step     Update method      Time    Convergence         Total energy    Change
  ------------------------------------------------------------------------------
  Decoupling Energy:                                               0.0371104025
  Recoupling Energy:                                              -0.0063745549
     1 OT DIIS     0.15E+00    3.1     0.00092537      -255.8029313634 -2.56E+02
  Decoupling Energy:                                               0.0371210905
  Recoupling Energy:                                              -0.0063746935
     2 OT DIIS     0.15E+00    3.5     0.00041587      -255.8072240294 -4.29E-03
  Decoupling Energy:                                               0.0371277553
  Recoupling Energy:                                              -0.0063747956
     3 OT DIIS     0.15E+00    3.4     0.00037228      -255.8077199028 -4.96E-04
  Decoupling Energy:                                               0.0371212850
  Recoupling Energy:                                              -0.0063746999
     4 OT DIIS     0.15E+00    3.4     0.00014957      -255.8079919801 -2.72E-04
  Decoupling Energy:                                               0.0371369488
  Recoupling Energy:                                              -0.0063748859
     5 OT DIIS     0.15E+00    3.4     0.00004923      -255.8080296580 -3.77E-05
  Decoupling Energy:                                               0.0371276795
  Recoupling Energy:                                              -0.0063747811
     6 OT DIIS     0.15E+00    3.4     0.00001779      -255.8080336507 -3.99E-06
  Decoupling Energy:                                               0.0371313106
  Recoupling Energy:                                              -0.0063748226
     7 OT DIIS     0.15E+00    3.4     0.00000735      -255.8080341990 -5.48E-07
  Decoupling Energy:                                               0.0371301428
  Recoupling Energy:                                              -0.0063748095
     8 OT DIIS     0.15E+00    3.4     0.00000183      -255.8080343002 -1.01E-07
  Decoupling Energy:                                               0.0371306206
  Recoupling Energy:                                              -0.0063748146
     9 OT DIIS     0.15E+00    3.4     0.00000127      -255.8080343059 -5.75E-09
  Decoupling Energy:                                               0.0371304192
  Recoupling Energy:                                              -0.0063748125
    10 OT DIIS     0.15E+00    3.4     0.00000040      -255.8080343087 -2.80E-09

  *** SCF run converged in    10 steps ***


  Electronic density on regular grids:       -180.0000000001       -0.0000000001
  Core density on regular grids:              180.9999999999       -0.0000000001
  Total charge density on r-space grids:        0.9999999998
  Total charge density g-space grids:           0.9999999998

  Overlap energy of the core charge distribution:               0.00002367605306
  Self energy of the core charge distribution:               -615.71576003586028
  Core Hamiltonian energy:                                    191.83715153721926
  Hartree energy:                                             247.48551243057642
  Exchange-correlation energy:                                -79.67126389427855
  QM/MM Electrostatic energy:                                   0.25630197756718

  Total energy:                                              -255.80803430872291
  Decoupling Energy:                                               0.0371304353
  Recoupling Energy:                                              -0.0063748127

 ENERGY| Total FORCE_EVAL ( QMMM ) energy [a.u.]:          -1060.045711407507952

 MD| ***************************************************************************
 MD| Step number                                                               1
 MD| Time [fs]                                                          1.000000
 MD| Conserved quantity [hartree]                            -0.841545612457E+03
 MD| ---------------------------------------------------------------------------
 MD|                                          Instantaneous             Averages
 MD| CPU time per MD step [s]                    280.725395           280.725395
 MD| Energy drift per atom [K]           0.138208460325E+02   0.000000000000E+00
 MD| Potential energy [hartree]         -0.106004571141E+04  -0.106004571141E+04
 MD| Total kinetic energy [hartree]      0.218500098950E+03   0.218500098950E+03
 MD| QM kinetic energy [hartree]         0.120537399808E+00   0.120537399808E+00
 MD| Total temperature [K]                       273.923972           273.923972
 MD| QM temperature [K]                          373.163284           373.163284
 MD| ***************************************************************************

  Translating the system in order to center the QM fragment in the QM box.

 Number of electrons:                                                        180
 Number of occupied orbitals:                                                 90
 Number of molecular orbitals:                                                90

 Number of orbital functions:                                                620
 Number of independent orbital functions:                                    620

 Extrapolation method: ASPC


 SCF WAVEFUNCTION OPTIMIZATION

  ----------------------------------- OT ---------------------------------------
  Minimizer      : DIIS                : direct inversion
                                         in the iterative subspace
                                         using   7 DIIS vectors
                                         safer DIIS on
  Preconditioner : FULL_ALL            : diagonalization, state selective
  Precond_solver : DEFAULT
  stepsize       :    0.15000000                  energy_gap     :    0.08000000
  eps_taylor     :   0.10000E-15                  max_taylor     :             4
  ----------------------------------- OT ---------------------------------------

  Step     Update method      Time    Convergence         Total energy    Change
  ------------------------------------------------------------------------------
  Decoupling Energy:                                               0.0371782649
  Recoupling Energy:                                              -0.0063753295
     1 OT DIIS     0.15E+00    2.9     0.00034569      -255.4446723057 -2.55E+02
  Decoupling Energy:                                               0.0371762835
  Recoupling Energy:                                              -0.0063753051
     2 OT DIIS     0.15E+00    3.3     0.00014529      -255.4452859372 -6.14E-04
  Decoupling Energy:                                               0.0371731697
  Recoupling Energy:                                              -0.0063752666
     3 OT DIIS     0.15E+00    3.3     0.00012811      -255.4453579787 -7.20E-05
  Decoupling Energy:                                               0.0371770311
  Recoupling Energy:                                              -0.0063753178
     4 OT DIIS     0.15E+00    3.3     0.00005544      -255.4453891688 -3.12E-05
  Decoupling Energy:                                               0.0371727801
  Recoupling Energy:                                              -0.0063752653
     5 OT DIIS     0.15E+00    3.3     0.00001634      -255.4453942985 -5.13E-06
  Decoupling Energy:                                               0.0371753987
  Recoupling Energy:                                              -0.0063752960
     6 OT DIIS     0.15E+00    3.3     0.00000629      -255.4453947485 -4.50E-07
  Decoupling Energy:                                               0.0371743569
  Recoupling Energy:                                              -0.0063752840
     7 OT DIIS     0.15E+00    3.3     0.00000206      -255.4453948232 -7.47E-08
  Decoupling Energy:                                               0.0371747656
  Recoupling Energy:                                              -0.0063752885
     8 OT DIIS     0.15E+00    3.4     0.00000090      -255.4453948303 -7.18E-09

  *** SCF run converged in     8 steps ***


  Electronic density on regular grids:       -180.0000000008       -0.0000000008
  Core density on regular grids:              180.9999999999       -0.0000000001
  Total charge density on r-space grids:        0.9999999990
  Total charge density g-space grids:           0.9999999990

  Overlap energy of the core charge distribution:               0.00004639440255
  Self energy of the core charge distribution:               -615.71576003586028
  Core Hamiltonian energy:                                    191.92051756974865
  Hartree energy:                                             247.45180559199378
  Exchange-correlation energy:                                -79.68728053121418
  QM/MM Electrostatic energy:                                   0.58527618058067

  Total energy:                                              -255.44539483034876
  Decoupling Energy:                                               0.0371745952
  Recoupling Energy:                                              -0.0063752867

 ENERGY| Total FORCE_EVAL ( QMMM ) energy [a.u.]:          -1061.319246075592673

 MD| ***************************************************************************
 MD| Step number                                                               2
 MD| Time [fs]                                                          2.000000
 MD| Conserved quantity [hartree]                            -0.842902035495E+03
 MD| ---------------------------------------------------------------------------
 MD|                                          Instantaneous             Averages
 MD| CPU time per MD step [s]                    124.315952           202.520674
 MD| Energy drift per atom [K]           0.112701292927E+02   0.563506464634E+01
 MD| Potential energy [hartree]         -0.106131924608E+04  -0.106068247874E+04
 MD| Total kinetic energy [hartree]      0.218417210581E+03   0.218458654766E+03
 MD| QM kinetic energy [hartree]         0.111218647046E+00   0.115878023427E+00
 MD| Total temperature [K]                       273.820058           273.872015
 MD| QM temperature [K]                          344.314011           358.738648
 MD| ***************************************************************************

  Translating the system in order to center the QM fragment in the QM box.

 Number of electrons:                                                        180
 Number of occupied orbitals:                                                 90
 Number of molecular orbitals:                                                90

 Number of orbital functions:                                                620
 Number of independent orbital functions:                                    620

 Extrapolation method: ASPC


 SCF WAVEFUNCTION OPTIMIZATION

  ----------------------------------- OT ---------------------------------------
  Minimizer      : DIIS                : direct inversion
                                         in the iterative subspace
                                         using   7 DIIS vectors
                                         safer DIIS on
  Preconditioner : FULL_ALL            : diagonalization, state selective
  Precond_solver : DEFAULT
  stepsize       :    0.15000000                  energy_gap     :    0.08000000
  eps_taylor     :   0.10000E-15                  max_taylor     :             4
  ----------------------------------- OT ---------------------------------------

  Step     Update method      Time    Convergence         Total energy    Change
  ------------------------------------------------------------------------------
  Decoupling Energy:                                               0.0372093686
  Recoupling Energy:                                              -0.0063756581
     1 OT DIIS     0.15E+00    3.0     0.00068288      -254.9647888723 -2.55E+02
  Decoupling Energy:                                               0.0372203239
  Recoupling Energy:                                              -0.0063757651
     2 OT DIIS     0.15E+00    3.4     0.00025903      -254.9670248334 -2.24E-03
  Decoupling Energy:                                               0.0372193635
  Recoupling Energy:                                              -0.0063757535
     3 OT DIIS     0.15E+00    3.4     0.00015274      -254.9672853819 -2.61E-04
  Decoupling Energy:                                               0.0372147275
  Recoupling Energy:                                              -0.0063757082
     4 OT DIIS     0.15E+00    3.5     0.00007836      -254.9673487006 -6.33E-05
  Decoupling Energy:                                               0.0372155264
  Recoupling Energy:                                              -0.0063757148
     5 OT DIIS     0.15E+00    3.4     0.00002591      -254.9673601195 -1.14E-05
  Decoupling Energy:                                               0.0372158097
  Recoupling Energy:                                              -0.0063757173
     6 OT DIIS     0.15E+00    3.5     0.00001297      -254.9673612301 -1.11E-06
  Decoupling Energy:                                               0.0372161516
  Recoupling Energy:                                              -0.0063757209
     7 OT DIIS     0.15E+00    3.4     0.00000392      -254.9673615292 -2.99E-07
  Decoupling Energy:                                               0.0372156716
  Recoupling Energy:                                              -0.0063757160
     8 OT DIIS     0.15E+00    3.5     0.00000141      -254.9673615556 -2.64E-08
  Decoupling Energy:                                               0.0372158579
  Recoupling Energy:                                              -0.0063757180
     9 OT DIIS     0.15E+00    3.4     0.00000048      -254.9673615598 -4.19E-09

  *** SCF run converged in     9 steps ***


  Electronic density on regular grids:       -180.0000000026       -0.0000000026
  Core density on regular grids:              180.9999999999       -0.0000000001
  Total charge density on r-space grids:        0.9999999973
  Total charge density g-space grids:           0.9999999973

  Overlap energy of the core charge distribution:               0.00004419926818
  Self energy of the core charge distribution:               -615.71576003586028
  Core Hamiltonian energy:                                    191.78835510030189
  Hartree energy:                                             247.54137729618617
  Exchange-correlation energy:                                -79.64149443363856
  QM/MM Electrostatic energy:                                   1.06011631393234

  Total energy:                                              -254.96736155981031
  Decoupling Energy:                                               0.0372157866
  Recoupling Energy:                                              -0.0063757172

 ENERGY| Total FORCE_EVAL ( QMMM ) energy [a.u.]:          -1082.129011335764744

 MD| ***************************************************************************
 MD| Step number                                                               3
 MD| Time [fs]                                                          3.000000
 MD| Conserved quantity [hartree]                            -0.846476809069E+03
 MD| ---------------------------------------------------------------------------
 MD|                                          Instantaneous             Averages
 MD| CPU time per MD step [s]                    128.589877           177.877075
 MD| Energy drift per atom [K]           0.454786452435E+01   0.527266460567E+01
 MD| Potential energy [hartree]         -0.108212901134E+04  -0.106783132294E+04
 MD| Total kinetic energy [hartree]      0.235652202267E+03   0.224189837266E+03
 MD| QM kinetic energy [hartree]         0.116444682012E+00   0.116066909622E+00
 MD| Total temperature [K]                       295.426810           281.056947
 MD| QM temperature [K]                          360.492926           359.323407
 MD| ***************************************************************************

  Translating the system in order to center the QM fragment in the QM box.

 Number of electrons:                                                        180
 Number of occupied orbitals:                                                 90
 Number of molecular orbitals:                                                90

 Number of orbital functions:                                                620
 Number of independent orbital functions:                                    620

 Extrapolation method: ASPC


 SCF WAVEFUNCTION OPTIMIZATION

  ----------------------------------- OT ---------------------------------------
  Minimizer      : DIIS                : direct inversion
                                         in the iterative subspace
                                         using   7 DIIS vectors
                                         safer DIIS on
  Preconditioner : FULL_ALL            : diagonalization, state selective
  Precond_solver : DEFAULT
  stepsize       :    0.15000000                  energy_gap     :    0.08000000
  eps_taylor     :   0.10000E-15                  max_taylor     :             4
  ----------------------------------- OT ---------------------------------------

  Step     Update method      Time    Convergence         Total energy    Change
  ------------------------------------------------------------------------------
  Decoupling Energy:                                               0.0372540981
  Recoupling Energy:                                              -0.0063761081
     1 OT DIIS     0.15E+00    3.0     0.00024459      -254.4113405045 -2.54E+02
  Decoupling Energy:                                               0.0372507590
  Recoupling Energy:                                              -0.0063760834
     2 OT DIIS     0.15E+00    3.3     0.00009754      -254.4116522313 -3.12E-04
  Decoupling Energy:                                               0.0372523111
  Recoupling Energy:                                              -0.0063760938
     3 OT DIIS     0.15E+00    3.3     0.00006294      -254.4116943772 -4.21E-05
  Decoupling Energy:                                               0.0372487211
  Recoupling Energy:                                              -0.0063760616
     4 OT DIIS     0.15E+00    3.4     0.00002077      -254.4117050277 -1.07E-05
  Decoupling Energy:                                               0.0372498214
  Recoupling Energy:                                              -0.0063760714
     5 OT DIIS     0.15E+00    3.3     0.00000699      -254.4117059461 -9.18E-07
  Decoupling Energy:                                               0.0372497344
  Recoupling Energy:                                              -0.0063760707
     6 OT DIIS     0.15E+00    3.3     0.00000424      -254.4117060197 -7.37E-08
  Decoupling Energy:                                               0.0372496961
  Recoupling Energy:                                              -0.0063760701
     7 OT DIIS     0.15E+00    3.3     0.00000103      -254.4117060497 -3.00E-08
  Decoupling Energy:                                               0.0372497534
  Recoupling Energy:                                              -0.0063760708
     8 OT DIIS     0.15E+00    3.3     0.00000046      -254.4117060516 -1.87E-09

  *** SCF run converged in     8 steps ***


  Electronic density on regular grids:       -179.9999999994        0.0000000006
  Core density on regular grids:              180.9999999999       -0.0000000001
  Total charge density on r-space grids:        1.0000000005
  Total charge density g-space grids:           1.0000000005

  Overlap energy of the core charge distribution:               0.00001948738725
  Self energy of the core charge distribution:               -615.71576003586028
  Core Hamiltonian energy:                                    191.48986428938110
  Hartree energy:                                             247.72017573458538
  Exchange-correlation energy:                                -79.55045540673045
  QM/MM Electrostatic energy:                                   1.64444987964069

  Total energy:                                              -254.41170605159633
  Decoupling Energy:                                               0.0372497052
  Recoupling Energy:                                              -0.0063760703

 ENERGY| Total FORCE_EVAL ( QMMM ) energy [a.u.]:          -1079.794214260183026

 MD| ***************************************************************************
 MD| Step number                                                               4
 MD| Time [fs]                                                          4.000000
 MD| Conserved quantity [hartree]                            -0.842197688600E+03
 MD| ---------------------------------------------------------------------------
 MD|                                          Instantaneous             Averages
 MD| CPU time per MD step [s]                    116.784658           162.603971
 MD| Energy drift per atom [K]           0.125946345281E+02   0.710315708628E+01
 MD| Potential energy [hartree]         -0.107979421426E+04  -0.107082204577E+04
 MD| Total kinetic energy [hartree]      0.237596525660E+03   0.227541509365E+03
 MD| QM kinetic energy [hartree]         0.144133271924E+00   0.123083500198E+00
 MD| Total temperature [K]                       297.864323           285.258791
 MD| QM temperature [K]                          446.212090           381.045578
 MD| ***************************************************************************

  Translating the system in order to center the QM fragment in the QM box.

 Number of electrons:                                                        180
 Number of occupied orbitals:                                                 90
 Number of molecular orbitals:                                                90

 Number of orbital functions:                                                620
 Number of independent orbital functions:                                    620

 Extrapolation method: ASPC


 SCF WAVEFUNCTION OPTIMIZATION

  ----------------------------------- OT ---------------------------------------
  Minimizer      : DIIS                : direct inversion
                                         in the iterative subspace
                                         using   7 DIIS vectors
                                         safer DIIS on
  Preconditioner : FULL_ALL            : diagonalization, state selective
  Precond_solver : DEFAULT
  stepsize       :    0.15000000                  energy_gap     :    0.08000000
  eps_taylor     :   0.10000E-15                  max_taylor     :             4
  ----------------------------------- OT ---------------------------------------

  Step     Update method      Time    Convergence         Total energy    Change
  ------------------------------------------------------------------------------
  Decoupling Energy:                                               0.0372779316
  Recoupling Energy:                                              -0.0063763730
     1 OT DIIS     0.15E+00    2.9     0.00031457      -253.8151268517 -2.54E+02
  Decoupling Energy:                                               0.0372689413
  Recoupling Energy:                                              -0.0063762905
     2 OT DIIS     0.15E+00    3.2     0.00011950      -253.8156456114 -5.19E-04
  Decoupling Energy:                                               0.0372686083
  Recoupling Energy:                                              -0.0063762777
     3 OT DIIS     0.15E+00    3.3     0.00008760      -253.8157104578 -6.48E-05
  Decoupling Energy:                                               0.0372698989
  Recoupling Energy:                                              -0.0063762979
     4 OT DIIS     0.15E+00    3.2     0.00004076      -253.8157261319 -1.57E-05
  Decoupling Energy:                                               0.0372685497
  Recoupling Energy:                                              -0.0063762803
     5 OT DIIS     0.15E+00    3.2     0.00001308      -253.8157290622 -2.93E-06
  Decoupling Energy:                                               0.0372701700
  Recoupling Energy:                                              -0.0063762991
     6 OT DIIS     0.15E+00    3.2     0.00000663      -253.8157293222 -2.60E-07
  Decoupling Energy:                                               0.0372690169
  Recoupling Energy:                                              -0.0063762862
     7 OT DIIS     0.15E+00    3.2     0.00000161      -253.8157293943 -7.20E-08
  Decoupling Energy:                                               0.0372694544
  Recoupling Energy:                                              -0.0063762910
     8 OT DIIS     0.15E+00    3.2     0.00000063      -253.8157293989 -4.65E-09

  *** SCF run converged in     8 steps ***


  Electronic density on regular grids:       -180.0000000006       -0.0000000006
  Core density on regular grids:              180.9999999999       -0.0000000001
  Total charge density on r-space grids:        0.9999999992
  Total charge density g-space grids:           0.9999999992

  Overlap energy of the core charge distribution:               0.00001460848501
  Self energy of the core charge distribution:               -615.71576003586028
  Core Hamiltonian energy:                                    191.25359588654266
  Hartree energy:                                             247.87426407379974
  Exchange-correlation energy:                                -79.47483493855523
  QM/MM Electrostatic energy:                                   2.24699100668466

  Total energy:                                              -253.81572939890350
  Decoupling Energy:                                               0.0372693262
  Recoupling Energy:                                              -0.0063762896

 ENERGY| Total FORCE_EVAL ( QMMM ) energy [a.u.]:          -1094.385760858895992

 MD| ***************************************************************************
 MD| Step number                                                               5
 MD| Time [fs]                                                          5.000000
 MD| Conserved quantity [hartree]                            -0.848473425792E+03
 MD| ---------------------------------------------------------------------------
 MD|                                          Instantaneous             Averages
 MD| CPU time per MD step [s]                    129.847111           156.052599
 MD| Energy drift per atom [K]           0.793280918606E+00   0.584118185274E+01
 MD| Potential energy [hartree]         -0.109438576086E+04  -0.107553478879E+04
 MD| Total kinetic energy [hartree]      0.245912335067E+03   0.231215674505E+03
 MD| QM kinetic energy [hartree]         0.151887287761E+00   0.128844257710E+00
 MD| Total temperature [K]                       308.289488           289.864930
 MD| QM temperature [K]                          470.217204           398.879903
 MD| ***************************************************************************

  Translating the system in order to center the QM fragment in the QM box.

 Number of electrons:                                                        180
 Number of occupied orbitals:                                                 90
 Number of molecular orbitals:                                                90

 Number of orbital functions:                                                620
 Number of independent orbital functions:                                    620

 Extrapolation method: ASPC


 SCF WAVEFUNCTION OPTIMIZATION

  ----------------------------------- OT ---------------------------------------
  Minimizer      : DIIS                : direct inversion
                                         in the iterative subspace
                                         using   7 DIIS vectors
                                         safer DIIS on
  Preconditioner : FULL_ALL            : diagonalization, state selective
  Precond_solver : DEFAULT
  stepsize       :    0.15000000                  energy_gap     :    0.08000000
  eps_taylor     :   0.10000E-15                  max_taylor     :             4
  ----------------------------------- OT ---------------------------------------

  Step     Update method      Time    Convergence         Total energy    Change
  ------------------------------------------------------------------------------
  Decoupling Energy:                                               0.0372763729
  Recoupling Energy:                                              -0.0063764058
     1 OT DIIS     0.15E+00    2.9     0.00016794      -253.2647012018 -2.53E+02
  Decoupling Energy:                                               0.0372754172
  Recoupling Energy:                                              -0.0063763916
     2 OT DIIS     0.15E+00    3.4     0.00008151      -253.2648266541 -1.25E-04
  Decoupling Energy:                                               0.0372720776
  Recoupling Energy:                                              -0.0063763537
     3 OT DIIS     0.15E+00    3.4     0.00005932      -253.2648437265 -1.71E-05
  Decoupling Energy:                                               0.0372780958
  Recoupling Energy:                                              -0.0063764225
     4 OT DIIS     0.15E+00    3.3     0.00003331      -253.2648506940 -6.97E-06
  Decoupling Energy:                                               0.0372740410
  Recoupling Energy:                                              -0.0063763747
     5 OT DIIS     0.15E+00    3.4     0.00000856      -253.2648526792 -1.99E-06
  Decoupling Energy:                                               0.0372754817
  Recoupling Energy:                                              -0.0063763917
     6 OT DIIS     0.15E+00    3.3     0.00000426      -253.2648527926 -1.13E-07
  Decoupling Energy:                                               0.0372747314
  Recoupling Energy:                                              -0.0063763834
     7 OT DIIS     0.15E+00    3.3     0.00000106      -253.2648528247 -3.21E-08
  Decoupling Energy:                                               0.0372749185
  Recoupling Energy:                                              -0.0063763853
     8 OT DIIS     0.15E+00    3.3     0.00000034      -253.2648528270 -2.33E-09

  *** SCF run converged in     8 steps ***


  Electronic density on regular grids:       -180.0000000005       -0.0000000005
  Core density on regular grids:              180.9999999999       -0.0000000001
  Total charge density on r-space grids:        0.9999999994
  Total charge density g-space grids:           0.9999999994

  Overlap energy of the core charge distribution:               0.00001414076102
  Self energy of the core charge distribution:               -615.71576003586028
  Core Hamiltonian energy:                                    191.18628293685947
  Hartree energy:                                             247.93014670599791
  Exchange-correlation energy:                                -79.44845300199854
  QM/MM Electrostatic energy:                                   2.78291642721377

  Total energy:                                              -253.26485282702669
  Decoupling Energy:                                               0.0372748699
  Recoupling Energy:                                              -0.0063763848

 ENERGY| Total FORCE_EVAL ( QMMM ) energy [a.u.]:          -1057.420858992182730

 MD| ***************************************************************************
 MD| Step number                                                               6
 MD| Time [fs]                                                          6.000000
 MD| Conserved quantity [hartree]                            -0.842984613538E+03
 MD| ---------------------------------------------------------------------------
 MD|                                          Instantaneous             Averages
 MD| CPU time per MD step [s]                    133.993580           152.376096
 MD| Energy drift per atom [K]           0.111148435206E+02   0.672012546405E+01
 MD| Potential energy [hartree]         -0.105742085899E+04  -0.107251580049E+04
 MD| Total kinetic energy [hartree]      0.214436245454E+03   0.228419102996E+03
 MD| QM kinetic energy [hartree]         0.137235215688E+00   0.130242750706E+00
 MD| Total temperature [K]                       268.829297           286.358991
 MD| QM temperature [K]                          424.856882           403.209399
 MD| ***************************************************************************

 -------------------------------------------------------------------------------
 -                                                                             -
 -                                DBCSR STATISTICS                             -
 -                                                                             -
 -------------------------------------------------------------------------------
 COUNTER                                    TOTAL       BLAS       SMM       ACC
 flops    26 x    26 x    26             10088624       0.0%      0.0%    100.0%
 flops    32 x    26 x    26             24833536       0.0%      0.0%    100.0%
 flops    26 x    32 x    26             24833536       0.0%      0.0%    100.0%
 flops    26 x    26 x    32             24833536       0.0%      0.0%    100.0%
 flops     5 x     5 x    26             51051000       0.0%      0.0%    100.0%
 flops    26 x    26 x     5             51531480       0.0%      0.0%    100.0%
 flops    32 x    32 x    26             61128704       0.0%      0.0%    100.0%
 flops    32 x    26 x    32             61128704       0.0%      0.0%    100.0%
 flops    26 x    32 x    32             61128704       0.0%      0.0%    100.0%
 flops     5 x    26 x    26             64023960       0.0%      0.0%    100.0%
 flops     5 x     5 x    32            125664000       0.0%      0.0%    100.0%
 flops    32 x    26 x     5            126846720       0.0%      0.0%    100.0%
 flops    26 x    32 x     5            126846720       0.0%      0.0%    100.0%
 flops    13 x     5 x    26            136518200       0.0%      0.0%    100.0%
 flops     5 x    13 x    26            136754800       0.0%      0.0%    100.0%
 flops    26 x    26 x    13            142101960       0.0%      0.0%    100.0%
 flops    32 x    32 x    32            150470656       0.0%      0.0%    100.0%
 flops     5 x    32 x    26            153753600       0.0%      0.0%    100.0%
 flops     5 x    26 x    32            153753600       0.0%      0.0%    100.0%
 flops    13 x    26 x    26            176550920       0.0%      0.0%    100.0%
 flops    32 x    32 x     5            312238080       0.0%      0.0%    100.0%
 flops    13 x     5 x    32            336044800       0.0%      0.0%    100.0%
 flops     5 x    13 x    32            336627200       0.0%      0.0%    100.0%
 flops    32 x    26 x    13            349789440       0.0%      0.0%    100.0%
 flops    26 x    32 x    13            349789440       0.0%      0.0%    100.0%
 flops     5 x    32 x    32            383201280       0.0%      0.0%    100.0%
 flops    13 x    13 x    26            387550800       0.0%      0.0%    100.0%
 flops    13 x    32 x    26            423987200       0.0%      0.0%    100.0%
 flops    13 x    26 x    32            423987200       0.0%      0.0%    100.0%
 flops     5 x    26 x     5            426125700       0.0%      0.0%    100.0%
 flops    32 x    32 x    13            861020160       0.0%      0.0%    100.0%
 flops    13 x    13 x    32            953971200       0.0%      0.0%    100.0%
 flops     5 x    32 x     5           1048924800       0.0%      0.0%    100.0%
 flops    13 x    32 x    32           1056706560       0.0%      0.0%    100.0%
 flops    13 x    26 x     5           1175073900       0.0%      0.0%    100.0%
 flops     5 x    26 x    13           1175073900       0.0%      0.0%    100.0%
 flops    13 x    32 x     5           2892489600       0.0%      0.0%    100.0%
 flops     5 x    32 x    13           2892489600       0.0%      0.0%    100.0%
 flops    13 x    26 x    13           3240355300       0.0%      0.0%    100.0%
 flops    13 x    32 x    13           7976259200       0.0%      0.0%    100.0%
 flops inhomo. stacks                           0       0.0%      0.0%      0.0%
 flops total                        28.865548E+09       0.0%      0.0%    100.0%
 flops max/rank                      9.416666E+09       0.0%      0.0%    100.0%
 matmuls inhomo. stacks                         0       0.0%      0.0%      0.0%
 matmuls total                            4990041       0.0%      0.0%    100.0%
 number of processed stacks                281379       0.0%      0.0%    100.0%
 average stack size                                     0.0       0.0      17.7
 marketing flops                    31.361663E+09
 -------------------------------------------------------------------------------
 # multiplications                           1183
 max memory usage/rank               5.306749E+09
 # max total images/rank                        1
 # max 3D layers                                1
 # MPI messages exchanged                    9464
 MPI messages size (bytes):
  total size                         1.512342E+09
  min size                           0.000000E+00
  max size                         773.768000E+03
  average size                     159.799484E+03
 MPI breakdown and total messages size (bytes):
             size <=      128                  70                        0
       128 < size <=     8192                 861                  7053312
      8192 < size <=    32768                2569                 48438432
     32768 < size <=   131072                2380                188876800
    131072 < size <=  4194304                3584               1267974400
   4194304 < size <= 16777216                   0                        0
  16777216 < size                               0                        0
 -------------------------------------------------------------------------------
 -                                                                             -
 -                      DBCSR MESSAGE PASSING PERFORMANCE                      -
 -                                                                             -
 -------------------------------------------------------------------------------
 ROUTINE             CALLS      AVE VOLUME [Bytes]
 MP_Bcast               41                     12.
 MP_Allreduce         4244                      8.
 MP_Alltoall          5138                  41655.
 MP_ISend             9436                  47872.
 MP_IRecv             9436                  43558.
 -------------------------------------------------------------------------------

 -------------------------------------------------------------------------------
 -                                                                             -
 -                                GRID STATISTICS                              -
 -                                                                             -
 -------------------------------------------------------------------------------
 LP    KERNEL             BACKEND                              COUNT     PERCENT
 3     collocate ortho    GPU                                2011832      23.95%
 3     integrate ortho    GPU                                1895357      22.57%
 4     integrate ortho    GPU                                1309750      15.59%
 4     collocate ortho    GPU                                1221991      14.55%
 2     collocate ortho    GPU                                 963552      11.47%
 2     integrate ortho    GPU                                 856494      10.20%
 5     integrate ortho    GPU                                 135774       1.62%
 0     collocate general  REF                                   1904       0.02%
 1     integrate general  REF                                   1904       0.02%
 -------------------------------------------------------------------------------

 MEMORY| Estimated peak process memory [MiB]                                5085

 -------------------------------------------------------------------------------
 -                                                                             -
 -                         MESSAGE PASSING PERFORMANCE                         -
 -                                                                             -
 -------------------------------------------------------------------------------

 ROUTINE             CALLS      AVE VOLUME [Bytes]
 MP_Group                8
 MP_Bcast             6912               10651624.
 MP_Allreduce         2413                1703275.
 MP_Sync                33
 MP_Alltoall          1330              286075961.
 MP_ISendRecv         1134                3114667.
 MP_Wait              2485
 MP_ISend             1015               15183448.
 MP_IRecv             1008               15283200.
 MP_Recv                14                 158720.
 -------------------------------------------------------------------------------


 -------------------------------------------------------------------------------
 -                                                                             -
 -                           R E F E R E N C E S                               -
 -                                                                             -
 -------------------------------------------------------------------------------
 
 CP2K version 8.2, the CP2K developers group (2021).
 CP2K is freely available from https://www.cp2k.org/ .

 Kuehne,Thomas D.; Iannuzzi,Marcella; Del Ben,Mauro;
 Rybkin,Vladimir V.; Seewald,Patrick; Stein,Frederick; Laino,Teodoro;
 Khaliullin,Rustam Z.; Schuett,Ole; Schiffmann,Florian; Golze,Dorothea;
 Wilhelm,Jan; Chulkov,Sergey; Bani-Hashemian,Mohammad Hossein;
 Weber,Valery; Borstnik,Urban; Taillefumier,Mathieu;
 Jakobovits,Alice Shoshana; Lazzaro,Alfio; Pabst,Hans; Mueller,Tiziano;
 Schade,Robert; Guidon,Manuel; Andermatt,Samuel; Holmberg,Nico;
 Schenter,Gregory K.; Hehn,Anna; Bussy,Augustin; Belleflamme,Fabian;
 Tabacchi,Gloria; Gloess,Andreas; Lass,Michael; Bethune,Iain;
 Mundy,Christopher J.; Plessl,Christian; Watkins,Matt;
 VandeVondele,Joost; Krack,Matthias; Hutter,Juerg. 
 The Journal of Chemical Physics, 152 (19), (2020). 
 CP2K: An electronic structure and molecular dynamics software package -
 Quickstep: Efficient and accurate electronic structure calculations.
 https://doi.org/10.1063/5.0007045

 Schuett, Ole; Messmer, Peter; Hutter, Juerg; VandeVondele, Joost. 
 Electronic Structure Calculations on Graphics Processing Units, John
 Wiley & Sons, Ltd, 173-190 (2016). 
 GPU-Accelerated Sparse Matrix-Matrix Multiplication for
 Linear Scaling Density Functional Theory.
 https://doi.org/10.1002/9781118670712.ch8

 Heinecke, A; Henry, G; Hutchinson, M; Pabst, H. 
 Proceedings of Intl. Supercomputing Conference, 981-991 (2016). 
 LIBXSMM: Accelerating Small Matrix Multiplications
 by Runtime Code Generation.
 https://doi.org/10.1109/SC.2016.83

 Borstnik, U; VandeVondele, J; Weber, V; Hutter, J. 
 PARALLEL COMPUTING, 40 (5-6), 47-58 (2014). 
 Sparse matrix multiplication: The distributed block-compressed sparse
 row library.
 https://doi.org/10.1016/j.parco.2014.03.012

 Hutter, J; Iannuzzi, M; Schiffmann, F; VandeVondele, J. 
 WIREs Comput Mol Sci., 4 (1), 15-25 (2014). 
 CP2K: atomistic simulations of condensed matter systems.
 https://doi.org/10.1002/wcms.1159

 Marek, A; Blum, V; Johanni, R; Havu, V; Lang, B; Auckenthaler, T;
 Heinecke, A; Bungartz, H; Lederer, H. 
 Journal of Physics: Condensed Matter, 26 (21), (2014). 
 The ELPA library: scalable parallel eigenvalue solutions for
 electronic structure
 theory and computational science.
 https://doi.org/10.1088/0953-8984/26/21/213201

 VandeVondele, J; Hutter, J. 
 JOURNAL OF CHEMICAL PHYSICS, 127 (11), 114105 (2007). 
 Gaussian basis sets for accurate calculations on molecular systems in
 gas and condensed phases.
 https://doi.org/10.1063/1.2770708

 Kuhne, TD; Krack, M; Mohamed, FR; Parrinello, M. 
 PHYSICAL REVIEW LETTERS, 98 (6), 066401 (2007). 
 Efficient and accurate Car-Parrinello-like approach to
 Born-Oppenheimer molecular dynamics.
 https://doi.org/10.1103/PhysRevLett.98.066401

 Laino, T; Mohamed, F; Laio, A; Parrinello, M. 
 JOURNAL OF CHEMICAL THEORY AND COMPUTATION, 2 (5), 1370-1378 (2006). 
 An efficient linear-scaling electrostatic coupling for treating
 periodic boundary conditions in QM/MM simulations.
 https://doi.org/10.1021/ct6001169

 Laino, T; Mohamed, F; Laio, A; Parrinello, M. 
 JOURNAL OF CHEMICAL THEORY AND COMPUTATION, 1 (6), 1176-1184 (2005). 
 An efficient real space multigrid QM/MM electrostatic coupling.
 https://doi.org/10.1021/ct050123f

 Krack, M. 
 THEORETICAL CHEMISTRY ACCOUNTS, 114 (1-3), 145-152 (2005). 
 Pseudopotentials for H to Kr optimized for gradient-corrected
 exchange-correlation functionals.
 https://doi.org/10.1007/s00214-005-0655-y

 VandeVondele, J; Krack, M; Mohamed, F; Parrinello, M; Chassaing, T;
 Hutter, J. COMPUTER PHYSICS COMMUNICATIONS, 167 (2), 103-128 (2005). 
 QUICKSTEP: Fast and accurate density functional calculations using a
 mixed Gaussian and plane waves approach.
 https://doi.org/10.1016/j.cpc.2004.12.014

 Frigo, M; Johnson, SG. 
 PROCEEDINGS OF THE IEEE, 93 (2), 216-231 (2005). 
 The design and implementation of FFTW3.
 https://doi.org/10.1109/JPROC.2004.840301

 Kolafa, J. 
 JOURNAL OF COMPUTATIONAL CHEMISTRY, 25 (3), 335-342 (2004). 
 Time-reversible always stable predictor-corrector method for molecular dynamics of polarizable molecules.
 https://doi.org/10.1002/jcc.10385

 VandeVondele, J; Hutter, J. 
 JOURNAL OF CHEMICAL PHYSICS, 118 (10), 4365-4369 (2003). 
 An efficient orbital transformation method for electronic structure
 calculations.
 https://doi.org/10.1063/1.1543154

 Hartwigsen, C; Goedecker, S; Hutter, J. 
 PHYSICAL REVIEW B, 58 (7), 3641-3662 (1998). 
 Relativistic separable dual-space Gaussian pseudopotentials from H to Rn.
 https://doi.org/10.1103/PhysRevB.58.3641

 Lippert, G; Hutter, J; Parrinello, M. 
 MOLECULAR PHYSICS, 92 (3), 477-487 (1997). 
 A hybrid Gaussian and plane wave density functional scheme.
 https://doi.org/10.1080/002689797170220

 Perdew, JP; Burke, K; Ernzerhof, M. 
 PHYSICAL REVIEW LETTERS, 77 (18), 3865-3868 (1996). 
 Generalized gradient approximation made simple.
 https://doi.org/10.1103/PhysRevLett.77.3865

 Goedecker, S; Teter, M; Hutter, J. 
 PHYSICAL REVIEW B, 54 (3), 1703-1710 (1996). 
 Separable dual-space Gaussian pseudopotentials.
 https://doi.org/10.1103/PhysRevB.54.1703

 ESSMANN, U; PERERA, L; BERKOWITZ, ML; DARDEN, T; LEE, H; PEDERSEN, LG. 
 JOURNAL OF CHEMICAL PHYSICS, 103 (19), 8577-8593 (1995). 
 A SMOOTH PARTICLE MESH EWALD METHOD.
 https://doi.org/10.1063/1.470117

 BLOCHL, PE. 
 JOURNAL OF CHEMICAL PHYSICS, 103 (17), 7422-7428 (1995). 
 ELECTROSTATIC DECOUPLING OF PERIODIC IMAGES OF PLANE-WAVE-EXPANDED
 DENSITIES AND DERIVED ATOMIC POINT CHARGES.
 https://doi.org/10.1063/1.470314


 -------------------------------------------------------------------------------
 -                                                                             -
 -                                T I M I N G                                  -
 -                                                                             -
 -------------------------------------------------------------------------------
 SUBROUTINE                       CALLS  ASD         SELF TIME        TOTAL TIME
                                MAXIMUM       AVERAGE  MAXIMUM  AVERAGE  MAXIMUM
 CP2K                                 1  1.0    0.605    0.660  960.709  960.710
 qs_mol_dyn_low                       1  2.0    0.020    0.021  915.685  917.026
 velocity_verlet                      6  3.0    0.086    0.104  785.151  785.973
 qs_forces                            7  3.9    0.001    0.001  295.185  295.186
 qs_energies                          7  4.9    0.000    0.000  272.340  272.345
 qmmm_el_coupling                     7  3.9    0.000    0.000  271.662  271.913
 qmmm_elec_with_gaussian              7  4.9    0.167    0.177  271.623  271.872
 scf_env_do_scf                       7  5.9    0.000    0.000  255.456  255.459
 qmmm_elec_with_gaussian_low          7  5.9    0.000    0.000  244.897  249.131
 qmmm_forces                          7  3.9    0.029    0.031  232.180  232.183
 scf_env_do_scf_inner_loop           56  6.9    0.002    0.003  231.352  231.360
 qmmm_forces_with_gaussian            7  4.9    0.423    0.444  229.770  230.214
 qmmm_force_with_gaussian_low         7  5.9    0.000    0.000  202.362  202.807
 rebuild_ks_matrix                   63  8.6    0.000    0.000  173.368  173.441
 qs_ks_build_kohn_sham_matrix        63  9.6    0.009    0.010  173.368  173.440
 qmmm_forces_gaussian_low_R           7  6.9    0.000    0.000  162.564  162.871
 qmmm_forces_with_gaussian_LG         7  7.9  162.564  162.871  162.564  162.871
 qs_ks_update_qs_env                 63  7.9    0.001    0.001  151.713  151.777
 qmmm_elec_gaussian_low_R             7  6.9    0.000    0.000  126.615  131.900
 qmmm_elec_with_gaussian_LG           7  7.9  126.615  131.899  126.615  131.899
 qmmm_elec_gaussian_low_G             7  6.9  118.281  120.003  118.281  120.003
 pw_transfer                       1337 12.1    0.096    0.099  114.522  117.157
 fft_wrap_pw1pw2                   1113 13.2    0.012    0.012  112.813  115.483
 fist_calc_energy_force               7  3.9    0.065    0.068  111.156  111.391
 fft_wrap_pw1pw2_200                707 14.4    0.004    0.004  107.758  110.097
 qs_vxc_create                       63 10.6    0.001    0.002   95.462   95.541
 xc_vxc_pw_create                    63 11.6    3.516    3.597   95.460   95.539
 force_nonbond                        7  4.9   79.980   83.060   79.980   83.060
 pw_cuda_c1dr3d_3d_ps               595 15.6    0.013    0.014   60.597   61.358
 write_mo_set_to_restart             56  7.9   15.186   60.740   60.753   60.761
 write_mo_set_low                     7  8.9    0.000    0.000   45.561   60.747
 cp_fm_write_unformatted              7  9.9   45.556   60.738   45.561   60.747
 pw_cuda_r3dc1d_3d_ps               518 14.8    0.010    0.010   52.199   54.240
 pw_integral_ab                    2967  7.5   51.897   52.123   52.533   52.871
 xc_rho_set_and_dset_create          63 12.6    0.452    0.485   48.964   51.219
 qmmm_env_create                      1  2.0    9.289    9.377   42.936   42.946
 mp_alltoall_z22v                  1113 17.2   37.475   41.034   37.475   41.034
 qmmm_forces_gaussian_low_G           7  6.9   39.798   40.145   39.798   40.145
 qs_rho_update_rho                   63  8.0    0.000    0.000   37.321   37.964
 calculate_rho_elec                  63  9.0    2.604    2.607   37.321   37.964
 density_rs2pw                       63 10.0    0.003    0.003   32.478   32.817
 x_to_yz                            595 16.6    9.010    9.312   27.879   29.347
 yz_to_x                            518 15.8    5.959    6.408   24.566   27.407
 sum_up_and_integrate                63 10.6    1.019    1.064   26.659   26.718
 fist_init                            1  3.0    0.000    0.000   25.869   25.872
 integrate_v_rspace                  63 11.6    0.002    0.002   25.639   25.688
 qs_ks_ddapc                         63 10.6    0.001    0.001   24.067   24.177
 init_scf_loop                        7  6.9    0.000    0.000   24.090   24.090
 pw_restrict_s3                      21  5.9    2.800    2.990   23.527   23.854
 list_control                         7  4.9    0.078    0.081   22.876   23.213
 rs_pw_transfer                     546 11.9    0.008    0.009   22.310   22.780
 build_fist_neighbor_lists            3  5.7    0.001    0.001   22.423   22.639
 potential_pw2rs                     63 12.6    0.098    0.101   22.517   22.548
 qs_ks_update_qs_env_forces           7  4.9    0.000    0.000   21.674   21.682
 pw_cuda_sf                         595 16.6   20.366   20.789   20.366   20.789
 mp_sum_dm3                          38  5.7   15.198   20.234   15.198   20.234
 -------------------------------------------------------------------------------

 The number of warnings for this run is : 0
 
 -------------------------------------------------------------------------------
  **** **** ******  **  PROGRAM ENDED AT                 2021-07-23 16:49:22.472
 ***** ** ***  *** **   PROGRAM RAN ON                                    r2i5n0
 **    ****   ******    PROGRAM RAN BY                                    hollyj
 ***** **    ** ** **   PROGRAM PROCESS ID                                 15045
  **** **  *******  **  PROGRAM STOPPED IN /lustre/home/w68/hollyj/CP2K/Cirrus/G
                                           PU/cp2kMD/CBD_PHY/6STEPS/1NODES/36CPN
                                           /10THREADS
