 DBCSR| CPU Multiplication driver                                           XSMM
 DBCSR| Multrec recursion limit                                              512
 DBCSR| Multiplication stack size                                          30000
 DBCSR| Maximum elements for images                                    UNLIMITED
 DBCSR| Multiplicative factor virtual images                                   1
 DBCSR| Use multiplication densification                                       F
 DBCSR| Multiplication size stacks                                             3
 DBCSR| Use memory pool for CPU allocation                                     F
 DBCSR| Number of 3D layers                                               SINGLE
 DBCSR| Use MPI memory allocation                                              F
 DBCSR| Use RMA algorithm                                                      F
 DBCSR| Use Communication thread                                               T
 DBCSR| Communication thread load                                             53
 DBCSR| MPI: My node id                                                        0
 DBCSR| MPI: Number of nodes                                                  16
 DBCSR| OMP: Current number of threads                                        10
 DBCSR| OMP: Max number of threads                                            10
 DBCSR| ACC: Number of devices/node                                            4
 DBCSR| ACC: Number of priority stack-buffers                                 40
 DBCSR| ACC: Number of posterior stack-buffers                                80
 DBCSR| ACC: Number of priority streams                                        4
 DBCSR| ACC: Number of posterior streams                                       4
 DBCSR| ACC: Avoid driver after busy                                           F
 DBCSR| ACC: Process inhomogeneous stacks                                      T
 DBCSR| ACC: Min. flop for processing                                          0
 DBCSR| ACC: Min. flop for sorting                                          4000
 DBCSR| ACC: Number of binning bins                                         4096
 DBCSR| ACC: Size of binning bins                                             16
 DBCSR| Split modifier for TAS multiplication algorithm                  1.0E+00


  **** **** ******  **  PROGRAM STARTED AT               2021-07-26 14:10:37.235
 ***** ** ***  *** **   PROGRAM STARTED ON                                r2i7n1
 **    ****   ******    PROGRAM STARTED BY                                hollyj
 ***** **    ** ** **   PROGRAM PROCESS ID                                 19922
  **** **  *******  **  PROGRAM STARTED IN /lustre/home/w68/hollyj/CP2K/Cirrus/G
                                           PU/cp2kMD/ClC-253-BLYP/6STEPS/4NODES/
                                           36CPN/10THREADS

 CP2K| version string:                                          CP2K version 8.2
 CP2K| source code revision number:                                  git:310b7ab
 CP2K| cp2kflags: omp libint fftw3 libxc elpa parallel mpi3 scalapack cosma pw_c
 CP2K|            uda xsmm cuda_profiling dbcsr_acc spglib mkl grid_cuda
 CP2K| is freely available from                            https://www.cp2k.org/
 CP2K| Program compiled at                          Thu Jul 22 18:07:58 BST 2021
 CP2K| Program compiled on                                                r2i5n7
 CP2K| Program compiled for                                           Cirrus-gcc
 CP2K| Data directory path       /lustre/home/w68/hollyj/CP2K/v8.2/cp2k-8.2/data
 CP2K| Input file name                                          ClC-253-cp2k.inp

 GLOBAL| Force Environment number                                              1
 GLOBAL| Basis set file name                                        BASIS_MOLOPT
 GLOBAL| Potential file name                                           POTENTIAL
 GLOBAL| MM Potential file name                                     MM_POTENTIAL
 GLOBAL| Coordinate file name                                            ClC.pdb
 GLOBAL| Method name                                                        CP2K
 GLOBAL| Project name                                               ClC-253-BLYP
 GLOBAL| Run type                                                             MD
 GLOBAL| FFT library                                                       FFTW3
 GLOBAL| Diagonalization library                                            ELPA
 GLOBAL| Minimum number of eigenvectors for ELPA usage                        16
 GLOBAL| Orthonormality check for eigenvectors                          DISABLED
 GLOBAL| Matrix multiplication library                                     COSMA
 GLOBAL| All-to-all communication in single precision                          F
 GLOBAL| FFTs using library dependent lengths                                  F
 GLOBAL| Grid backend                                                       AUTO
 GLOBAL| Global print level                                                  LOW
 GLOBAL| MPI I/O enabled                                                       T
 GLOBAL| Total number of message passing processes                            16
 GLOBAL| Number of threads for this process                                   10
 GLOBAL| This output is from process                                           0
 GLOBAL| CPU model name                 Intel(R) Xeon(R) Gold 6248 CPU @ 2.50GHz
 GLOBAL| CPUID                                                              1003

 MEMORY| system memory details [Kb]
 MEMORY|                        rank 0           min           max       average
 MEMORY| MemTotal            394535408     394535408     394535408     394535408
 MEMORY| MemFree             387768764     387183320     387768764     387386741
 MEMORY| Buffers                     0             0             0             0
 MEMORY| Cached                 779456        752348        783816        767194
 MEMORY| Slab                   887488        887488        964300        936347
 MEMORY| SReclaimable           169524        169524        177912        173453
 MEMORY| MemLikelyFree       388717744     388145048     388717744     388327388



                      ************* ******** ***********   
                     ************* **********************  
                     ****     **** ****      ***********   
                     ******** ****  *******     ****       
                     *******  ****   *******   ****        
                     ****     ****       ****  ****        
                     ****     **** **********  ****        
                      ****     **** ********    ****       
                     FRONTIERS IN SIMULATION TECHNOLOGY    
                                                           
                        C.J. Mundy, S. Balasubramanian,    
                     Ken Bagchi, J. Hutter, Ari Seitsonen  
                      IFW Kuo, T. Laino, J. VandeVondele   
                                 Version 1.0               

                                                           


 EWALD| Summation is done by:                                               SPME
 EWALD| Alpha parameter [       ANGSTROM^-1]                              0.4000
 EWALD| Real Space Cutoff [          ANGSTROM]                            8.4348
 EWALD| G-space max. Miller index                         80        80        80
 EWALD| Spline interpolation order                                             6

 FORCEFIELD| WARNING: A non Critical ForceField parameter is missing! CP2K GOES!
 FORCEFIELD| Non critical parameters are:Urey-Bradley,Torsions,Impropers, Opbends and 1-4
 FORCEFIELD| All missing parameters will not contribute to the potential energy!
 FORCEFIELD| Activate the print key FF_INFO to have a list of missing parameters

 CHARGE_INFO| Total Charge of the Classical System:                     2.369895

 SPLINE_INFO| Generating 85491 splines for NONBONDED14 interactions 
              Due to 413 different atomic kinds
  ...8549  ...17098  ...25647  ...34196  ...42745  ...51294  ...59843  ...68392  ...76941  ...85490
 SPLINE_INFO| Number of unique splines computed:            254
 SPLINE_INFO| Done

 SPLINE_INFO| Generating 85491 splines for NONBONDED interactions 
              Due to 413 different atomic kinds
  ...8549  ...17098  ...25647  ...34196  ...42745  ...51294  ...59843  ...68392  ...76941  ...85490
 SPLINE_INFO| Number of unique splines computed:            254
 SPLINE_INFO| Done

 *******************************************************************************
 *******************************************************************************
 **                                                                           **
 **     #####                         ##              ##                      **
 **    ##   ##            ##          ##              ##                      **
 **   ##     ##                       ##            ######                    **
 **   ##     ##  ##   ##  ##   #####  ##  ##   ####   ##    #####    #####    **
 **   ##     ##  ##   ##  ##  ##      ## ##   ##      ##   ##   ##  ##   ##   **
 **   ##  ## ##  ##   ##  ##  ##      ####     ###    ##   ######   ######    **
 **    ##  ###   ##   ##  ##  ##      ## ##      ##   ##   ##       ##        **
 **     #######   #####   ##   #####  ##  ##  ####    ##    #####   ##        **
 **           ##                                                    ##        **
 **                                                                           **
 **                                                ... make the atoms dance   **
 **                                                                           **
 **            Copyright (C) by CP2K developers group (2000-2021)             **
 **                      J. Chem. Phys. 152, 194103 (2020)                    **
 **                                                                           **
 *******************************************************************************


 TOTAL NUMBERS AND MAXIMUM NUMBERS

  Total number of            - Atomic kinds:                                   6
                             - Atoms:                                        253
                             - Shell sets:                                   253
                             - Shells:                                       991
                             - Primitive Cartesian functions:               1770
                             - Cartesian basis functions:                   2309
                             - Spherical basis functions:                   2193

  Maximum angular momentum of- Orbital basis functions:                        2
                             - Local part of the GTH pseudopotential:          2
                             - Non-local part of the GTH pseudopotential:      2


 SCF PARAMETERS         Density guess:                                   RESTART
                        --------------------------------------------------------
                        max_scf:                                             300
                        max_scf_history:                                       0
                        max_diis:                                              4
                        --------------------------------------------------------
                        eps_scf:                                        1.00E-06
                        eps_scf_history:                                0.00E+00
                        eps_diis:                                       1.00E-01
                        eps_eigval:                                     1.00E-05
                        --------------------------------------------------------
                        level_shift [a.u.]:                                 0.00
                        --------------------------------------------------------
                        No outer SCF

 *******************************************************************************
 *******************************************************************************
 **                                                                           **
 **             #######  ##     ## ##     ## ##     ##                        **
 **            ##     ## ###   ### ###   ### ###   ###                        **
 **            ##     ## #### #### #### #### #### ####                        **
 **            ##     ## ## ### ## ## ### ## ## ### ##                        **
 **            ##  ## ## ##     ## ##     ## ##     ##                        **
 **            ##    ##  ##     ## ##     ## ##     ##  T.Laino and F.Mohamed **
 **             ##### ## ##     ## ##     ## ##     ##  2005 - 2015           **
 **                                                                           **
 **                                                     Calculation Started.. **
 *******************************************************************************
 *******************************************************************************

 MD_PAR| Molecular dynamics protocol (MD input parameters)
 MD_PAR| Ensemble type                                                       NVE
 MD_PAR| Number of time steps                                                  6
 MD_PAR| Time step [fs]                                                 1.000000
 MD_PAR| Temperature [K]                                              300.000000
 MD_PAR| Temperature tolerance [K]                                      0.000000
 MD_PAR| Print MD information every                                    1 step(s)
 MD_PAR| File type   Print frequency [steps]                          File names
 MD_PAR| Coordinates          1                           ClC-253-BLYP-pos-1.xyz
 MD_PAR| Velocities           1                           ClC-253-BLYP-vel-1.xyz
 MD_PAR| Energies             1                              ClC-253-BLYP-1.ener
 MD_PAR| Dump                20                           ClC-253-BLYP-1.restart

 ROT| Rotational analysis information
 ROT| Principal axes and moments of inertia [a.u.]
 ROT|                           1                   2                   3
 ROT| Eigenvalues      6.49908278768+119   9.69266118148+120   9.76757630270+120
 ROT|      x              0.966767624107     -0.244635852463     -0.074254027960
 ROT|      y             -0.214972405609     -0.620674029844     -0.754022952902
 ROT|      z             -0.138373501094     -0.744927545716      0.652637514880
 ROT| Number of rotovibrational vectors                                        6

 DOF| Calculation of degrees of freedom
 DOF| Number of atoms                                                     150925
 DOF| Number of intramolecular constraints                                     0
 DOF| Number of intermolecular constraints                                     0
 DOF| Invariants (translations + rotations)                                    3
 DOF| Degrees of freedom                                                  452772

 DOF| Restraints information
 DOF| Number of intramolecular restraints                                      0
 DOF| Number of intermolecular restraints                                      0

 MD_VEL| Velocities initialization
 MD_VEL| Initial temperature [K]                                      300.000000
 MD_VEL| COM velocity            -0.0000000000     0.0000000000     0.0000000000

  Translating the system in order to center the QM fragment in the QM box.

 Number of electrons:                                                        654
 Number of occupied orbitals:                                                327
 Number of molecular orbitals:                                               327

 Number of orbital functions:                                               2193
 Number of independent orbital functions:                                   2193

 Extrapolation method: initial_guess


 SCF WAVEFUNCTION OPTIMIZATION

  ----------------------------------- OT ---------------------------------------
  Minimizer      : DIIS                : direct inversion
                                         in the iterative subspace
                                         using   7 DIIS vectors
                                         safer DIIS on
  Preconditioner : FULL_ALL            : diagonalization, state selective
  Precond_solver : DEFAULT
  stepsize       :    0.15000000                  energy_gap     :    0.08000000
  eps_taylor     :   0.10000E-15                  max_taylor     :             4
  ----------------------------------- OT ---------------------------------------

  Step     Update method      Time    Convergence         Total energy    Change
  ------------------------------------------------------------------------------
  Decoupling Energy:                                               0.0674872996
  Recoupling Energy:                                              -0.0068222234
     1 OT DIIS     0.15E+00    7.8     0.00001627     -1098.7913677411 -1.10E+03
  Decoupling Energy:                                               0.0674861058
  Recoupling Energy:                                              -0.0068221797
     2 OT DIIS     0.15E+00    1.0     0.00000900     -1098.7913888938 -2.12E-05
  Decoupling Energy:                                               0.0674950603
  Recoupling Energy:                                              -0.0068223087
     3 OT DIIS     0.15E+00    1.0     0.00001460     -1098.7913964549 -7.56E-06
  Decoupling Energy:                                               0.0674896965
  Recoupling Energy:                                              -0.0068222498
     4 OT DIIS     0.15E+00    1.0     0.00000626     -1098.7913998880 -3.43E-06
  Decoupling Energy:                                               0.0674872278
  Recoupling Energy:                                              -0.0068222035
     5 OT DIIS     0.15E+00    1.0     0.00000578     -1098.7914020837 -2.20E-06
  Decoupling Energy:                                               0.0674888303
  Recoupling Energy:                                              -0.0068221999
     6 OT DIIS     0.15E+00    1.0     0.00000580     -1098.7914084634 -6.38E-06
  Decoupling Energy:                                               0.0674891663
  Recoupling Energy:                                              -0.0068222222
     7 OT DIIS     0.15E+00    1.0     0.00000561     -1098.7914167881 -8.32E-06
  Decoupling Energy:                                               0.0674892941
  Recoupling Energy:                                              -0.0068222412
     8 OT DIIS     0.15E+00    1.0     0.00000524     -1098.7914221585 -5.37E-06
  Decoupling Energy:                                               0.0674881906
  Recoupling Energy:                                              -0.0068221895
     9 OT DIIS     0.15E+00    1.0     0.00000516     -1098.7914280315 -5.87E-06
  Decoupling Energy:                                               0.0674891068
  Recoupling Energy:                                              -0.0068222186
    10 OT DIIS     0.15E+00    1.0     0.00000503     -1098.7914326439 -4.61E-06
  Decoupling Energy:                                               0.0674910255
  Recoupling Energy:                                              -0.0068222409
    11 OT DIIS     0.15E+00    1.0     0.00000505     -1098.7914451574 -1.25E-05
  Decoupling Energy:                                               0.0674893445
  Recoupling Energy:                                              -0.0068222092
    12 OT DIIS     0.15E+00    1.0     0.00000544     -1098.7914511015 -5.94E-06
  Decoupling Energy:                                               0.0674886192
  Recoupling Energy:                                              -0.0068221746
    13 OT DIIS     0.15E+00    1.0     0.00000506     -1098.7914589353 -7.83E-06
  Decoupling Energy:                                               0.0674897272
  Recoupling Energy:                                              -0.0068221819
    14 OT DIIS     0.15E+00    1.0     0.00000482     -1098.7914634348 -4.50E-06
  Decoupling Energy:                                               0.0674896707
  Recoupling Energy:                                              -0.0068222125
    15 OT DIIS     0.15E+00    1.0     0.00000471     -1098.7914698145 -6.38E-06
  Decoupling Energy:                                               0.0674902115
  Recoupling Energy:                                              -0.0068221925
    16 OT DIIS     0.15E+00    1.0     0.00000482     -1098.7914781062 -8.29E-06
  Decoupling Energy:                                               0.0674901472
  Recoupling Energy:                                              -0.0068221797
    17 OT DIIS     0.15E+00    1.0     0.00000498     -1098.7914886288 -1.05E-05
  Decoupling Energy:                                               0.0674880435
  Recoupling Energy:                                              -0.0068221048
    18 OT DIIS     0.15E+00    1.0     0.00000526     -1098.7915022663 -1.36E-05
  Decoupling Energy:                                               0.0674897586
  Recoupling Energy:                                              -0.0068221785
    19 OT DIIS     0.15E+00    1.0     0.00000471     -1098.7915055207 -3.25E-06
  Decoupling Energy:                                               0.0674872475
  Recoupling Energy:                                              -0.0068220953
    20 OT DIIS     0.15E+00    1.0     0.00000508     -1098.7915154559 -9.94E-06
  Decoupling Energy:                                               0.0674906167
  Recoupling Energy:                                              -0.0068222473
    21 OT DIIS     0.15E+00    1.0     0.00000457     -1098.7915235632 -8.11E-06
  Decoupling Energy:                                               0.0674882094
  Recoupling Energy:                                              -0.0068221454
    22 OT DIIS     0.15E+00    1.0     0.00000473     -1098.7915323917 -8.83E-06
  Decoupling Energy:                                               0.0674847826
  Recoupling Energy:                                              -0.0068220505
    23 OT DIIS     0.15E+00    1.0     0.00000542     -1098.7915548569 -2.25E-05
  Decoupling Energy:                                               0.0674699960
  Recoupling Energy:                                              -0.0068215480
    24 OT DIIS     0.15E+00    1.0     0.00001418     -1098.7915841560 -2.93E-05
  Decoupling Energy:                                               0.0674739933
  Recoupling Energy:                                              -0.0068217824
    25 OT SD       0.15E+00    1.0     0.00000724     -1098.7915868327 -2.68E-06
  Decoupling Energy:                                               0.0674836505
  Recoupling Energy:                                              -0.0068222788
    26 OT SD       0.15E+00    1.0     0.00001712     -1098.7915858285  1.00E-06
  Decoupling Energy:                                               0.0674808642
  Recoupling Energy:                                              -0.0068216362
    27 OT DIIS     0.15E+00    1.0     0.00005727     -1098.7915520467  3.38E-05
  Decoupling Energy:                                               0.0674947417
  Recoupling Energy:                                              -0.0068224728
    28 OT DIIS     0.15E+00    1.0     0.00000821     -1098.7915724251 -2.04E-05
  Decoupling Energy:                                               0.0674768507
  Recoupling Energy:                                              -0.0068218846
    29 OT DIIS     0.15E+00    1.0     0.00000539     -1098.7915985534 -2.61E-05
  Decoupling Energy:                                               0.0674835214
  Recoupling Energy:                                              -0.0068221007
    30 OT SD       0.15E+00    1.0     0.00000463     -1098.7916040725 -5.52E-06
  Decoupling Energy:                                               0.0674810456
  Recoupling Energy:                                              -0.0068220181
    31 OT DIIS     0.15E+00    1.0     0.00000894     -1098.7916049462 -8.74E-07
  Decoupling Energy:                                               0.0674855074
  Recoupling Energy:                                              -0.0068221340
    32 OT SD       0.15E+00    1.0     0.00000392     -1098.7916135977 -8.65E-06
  Decoupling Energy:                                               0.0674890623
  Recoupling Energy:                                              -0.0068222227
    33 OT DIIS     0.15E+00    1.0     0.00000540     -1098.7916148950 -1.30E-06
  Decoupling Energy:                                               0.0674876841
  Recoupling Energy:                                              -0.0068221546
    34 OT DIIS     0.15E+00    1.0     0.00000373     -1098.7916208253 -5.93E-06
  Decoupling Energy:                                               0.0674877213
  Recoupling Energy:                                              -0.0068221785
    35 OT DIIS     0.15E+00    1.0     0.00000370     -1098.7916231369 -2.31E-06
  Decoupling Energy:                                               0.0674875505
  Recoupling Energy:                                              -0.0068221509
    36 OT DIIS     0.15E+00    1.0     0.00000400     -1098.7916341154 -1.10E-05
  Decoupling Energy:                                               0.0674875254
  Recoupling Energy:                                              -0.0068221469
    37 OT DIIS     0.15E+00    1.0     0.00000377     -1098.7916392175 -5.10E-06
  Decoupling Energy:                                               0.0674846560
  Recoupling Energy:                                              -0.0068220695
    38 OT SD       0.15E+00    1.0     0.00000380     -1098.7916448028 -5.59E-06
  Decoupling Energy:                                               0.0674855381
  Recoupling Energy:                                              -0.0068221506
    39 OT DIIS     0.15E+00    1.0     0.00000675     -1098.7916456622 -8.59E-07
  Decoupling Energy:                                               0.0674807381
  Recoupling Energy:                                              -0.0068219768
    40 OT SD       0.15E+00    1.0     0.00000454     -1098.7916593298 -1.37E-05
  Decoupling Energy:                                               0.0674769458
  Recoupling Energy:                                              -0.0068219670
    41 OT SD       0.15E+00    1.0     0.00000937     -1098.7916596928 -3.63E-07
  Decoupling Energy:                                               0.0674895012
  Recoupling Energy:                                              -0.0068221138
    42 OT DIIS     0.15E+00    1.0     0.00002997     -1098.7916510972  8.60E-06
  Decoupling Energy:                                               0.0674782357
  Recoupling Energy:                                              -0.0068219392
    43 OT DIIS     0.15E+00    1.0     0.00000365     -1098.7916657043 -1.46E-05
  Decoupling Energy:                                               0.0674784760
  Recoupling Energy:                                              -0.0068219407
    44 OT DIIS     0.15E+00    1.0     0.00000337     -1098.7916710196 -5.32E-06
  Decoupling Energy:                                               0.0674762166
  Recoupling Energy:                                              -0.0068219283
    45 OT DIIS     0.15E+00    1.0     0.00000362     -1098.7916812888 -1.03E-05
  Decoupling Energy:                                               0.0674769520
  Recoupling Energy:                                              -0.0068219474
    46 OT DIIS     0.15E+00    1.0     0.00000327     -1098.7916849592 -3.67E-06
  Decoupling Energy:                                               0.0674741792
  Recoupling Energy:                                              -0.0068218721
    47 OT DIIS     0.15E+00    1.0     0.00000448     -1098.7916952855 -1.03E-05
  Decoupling Energy:                                               0.0674755255
  Recoupling Energy:                                              -0.0068219163
    48 OT DIIS     0.15E+00    1.0     0.00000311     -1098.7916980959 -2.81E-06
  Decoupling Energy:                                               0.0674742304
  Recoupling Energy:                                              -0.0068219045
    49 OT DIIS     0.15E+00    1.0     0.00000553     -1098.7917083170 -1.02E-05
  Decoupling Energy:                                               0.0674775577
  Recoupling Energy:                                              -0.0068219922
    50 OT DIIS     0.15E+00    1.0     0.00000379     -1098.7917138544 -5.54E-06
  Decoupling Energy:                                               0.0674794172
  Recoupling Energy:                                              -0.0068220209
    51 OT DIIS     0.15E+00    1.0     0.00000292     -1098.7917207753 -6.92E-06
  Decoupling Energy:                                               0.0674785962
  Recoupling Energy:                                              -0.0068219592
    52 OT DIIS     0.15E+00    1.0     0.00000418     -1098.7917246135 -3.84E-06
  Decoupling Energy:                                               0.0674806858
  Recoupling Energy:                                              -0.0068220148
    53 OT DIIS     0.15E+00    1.0     0.00000296     -1098.7917268986 -2.29E-06
  Decoupling Energy:                                               0.0674828512
  Recoupling Energy:                                              -0.0068220704
    54 OT DIIS     0.15E+00    1.0     0.00000536     -1098.7917366485 -9.75E-06
  Decoupling Energy:                                               0.0674845455
  Recoupling Energy:                                              -0.0068221027
    55 OT DIIS     0.15E+00    1.0     0.00000312     -1098.7917368521 -2.04E-07
  Decoupling Energy:                                               0.0674881574
  Recoupling Energy:                                              -0.0068221628
    56 OT SD       0.15E+00    1.0     0.00000634     -1098.7917470921 -1.02E-05
  Decoupling Energy:                                               0.0674739780
  Recoupling Energy:                                              -0.0068218352
    57 OT SD       0.15E+00    1.0     0.00001492     -1098.7917455909  1.50E-06
  Decoupling Energy:                                               0.0675039585
  Recoupling Energy:                                              -0.0068225999
    58 OT DIIS     0.15E+00    1.0     0.00004736     -1098.7917175233  2.81E-05
  Decoupling Energy:                                               0.0674835368
  Recoupling Energy:                                              -0.0068220172
    59 OT DIIS     0.15E+00    1.0     0.00000335     -1098.7917459876 -2.85E-05
  Decoupling Energy:                                               0.0674899685
  Recoupling Energy:                                              -0.0068222439
    60 OT DIIS     0.15E+00    1.0     0.00000258     -1098.7917499334 -3.95E-06
  Decoupling Energy:                                               0.0674929392
  Recoupling Energy:                                              -0.0068223218
    61 OT DIIS     0.15E+00    1.0     0.00000395     -1098.7917557395 -5.81E-06
  Decoupling Energy:                                               0.0674936175
  Recoupling Energy:                                              -0.0068223074
    62 OT DIIS     0.15E+00    1.0     0.00000310     -1098.7917584000 -2.66E-06
  Decoupling Energy:                                               0.0674928214
  Recoupling Energy:                                              -0.0068222706
    63 OT SD       0.15E+00    1.0     0.00000252     -1098.7917598032 -1.40E-06
  Decoupling Energy:                                               0.0674896211
  Recoupling Energy:                                              -0.0068222093
    64 OT DIIS     0.15E+00    1.0     0.00000349     -1098.7917602529 -4.50E-07
  Decoupling Energy:                                               0.0674942058
  Recoupling Energy:                                              -0.0068223189
    65 OT DIIS     0.15E+00    1.0     0.00000280     -1098.7917666790 -6.43E-06
  Decoupling Energy:                                               0.0674936670
  Recoupling Energy:                                              -0.0068222776
    66 OT DIIS     0.15E+00    1.0     0.00000303     -1098.7917685152 -1.84E-06
  Decoupling Energy:                                               0.0674963078
  Recoupling Energy:                                              -0.0068223423
    67 OT DIIS     0.15E+00    1.0     0.00000323     -1098.7917735264 -5.01E-06
  Decoupling Energy:                                               0.0674995519
  Recoupling Energy:                                              -0.0068224255
    68 OT SD       0.15E+00    1.0     0.00000371     -1098.7917786248 -5.10E-06
  Decoupling Energy:                                               0.0674871455
  Recoupling Energy:                                              -0.0068220790
    69 OT SD       0.15E+00    1.0     0.00000772     -1098.7917784653  1.60E-07
  Decoupling Energy:                                               0.0675067728
  Recoupling Energy:                                              -0.0068226901
    70 OT DIIS     0.15E+00    1.0     0.00002225     -1098.7917732374  5.23E-06
  Decoupling Energy:                                               0.0674927593
  Recoupling Energy:                                              -0.0068222602
    71 OT DIIS     0.15E+00    1.0     0.00000226     -1098.7917801498 -6.91E-06
  Decoupling Energy:                                               0.0674966058
  Recoupling Energy:                                              -0.0068223555
    72 OT DIIS     0.15E+00    1.0     0.00000256     -1098.7917837921 -3.64E-06
  Decoupling Energy:                                               0.0674997859
  Recoupling Energy:                                              -0.0068224447
    73 OT DIIS     0.15E+00    1.0     0.00000330     -1098.7917896437 -5.85E-06
  Decoupling Energy:                                               0.0675095741
  Recoupling Energy:                                              -0.0068227146
    74 OT DIIS     0.15E+00    1.0     0.00000541     -1098.7917973556 -7.71E-06
  Decoupling Energy:                                               0.0675084195
  Recoupling Energy:                                              -0.0068226650
    75 OT SD       0.15E+00    1.0     0.00000467     -1098.7917993102 -1.95E-06
  Decoupling Energy:                                               0.0674911613
  Recoupling Energy:                                              -0.0068221561
    76 OT SD       0.15E+00    1.0     0.00000995     -1098.7917986292  6.81E-07
  Decoupling Energy:                                               0.0675158976
  Recoupling Energy:                                              -0.0068229844
    77 OT DIIS     0.15E+00    1.0     0.00002850     -1098.7917895924  9.04E-06
  Decoupling Energy:                                               0.0674877809
  Recoupling Energy:                                              -0.0068221437
    78 OT DIIS     0.15E+00    1.0     0.00000330     -1098.7917970925 -7.50E-06
  Decoupling Energy:                                               0.0675000150
  Recoupling Energy:                                              -0.0068224305
    79 OT DIIS     0.15E+00    1.0     0.00000254     -1098.7918009461 -3.85E-06
  Decoupling Energy:                                               0.0674983479
  Recoupling Energy:                                              -0.0068223889
    80 OT DIIS     0.15E+00    1.0     0.00000174     -1098.7918019736 -1.03E-06
  Decoupling Energy:                                               0.0674932311
  Recoupling Energy:                                              -0.0068222609
    81 OT DIIS     0.15E+00    1.0     0.00000154     -1098.7918022744 -3.01E-07
  Decoupling Energy:                                               0.0674931106
  Recoupling Energy:                                              -0.0068222502
    82 OT DIIS     0.15E+00    1.0     0.00000158     -1098.7918030837 -8.09E-07
  Decoupling Energy:                                               0.0674941937
  Recoupling Energy:                                              -0.0068222773
    83 OT DIIS     0.15E+00    1.0     0.00000151     -1098.7918033927 -3.09E-07
  Decoupling Energy:                                               0.0674935299
  Recoupling Energy:                                              -0.0068222462
    84 OT DIIS     0.15E+00    1.0     0.00000146     -1098.7918049112 -1.52E-06
  Decoupling Energy:                                               0.0674921690
  Recoupling Energy:                                              -0.0068222163
    85 OT DIIS     0.15E+00    1.0     0.00000148     -1098.7918052920 -3.81E-07
  Decoupling Energy:                                               0.0674927043
  Recoupling Energy:                                              -0.0068222117
    86 OT DIIS     0.15E+00    1.0     0.00000137     -1098.7918068028 -1.51E-06
  Decoupling Energy:                                               0.0674932289
  Recoupling Energy:                                              -0.0068222212
    87 OT DIIS     0.15E+00    1.0     0.00000137     -1098.7918082018 -1.40E-06
  Decoupling Energy:                                               0.0674933007
  Recoupling Energy:                                              -0.0068222110
    88 OT DIIS     0.15E+00    1.0     0.00000135     -1098.7918094077 -1.21E-06
  Decoupling Energy:                                               0.0674940517
  Recoupling Energy:                                              -0.0068222214
    89 OT DIIS     0.15E+00    1.0     0.00000132     -1098.7918106748 -1.27E-06
  Decoupling Energy:                                               0.0674950596
  Recoupling Energy:                                              -0.0068222481
    90 OT DIIS     0.15E+00    1.0     0.00000135     -1098.7918118275 -1.15E-06
  Decoupling Energy:                                               0.0674958224
  Recoupling Energy:                                              -0.0068222625
    91 OT DIIS     0.15E+00    1.0     0.00000132     -1098.7918127590 -9.32E-07
  Decoupling Energy:                                               0.0674958877
  Recoupling Energy:                                              -0.0068222612
    92 OT DIIS     0.15E+00    1.0     0.00000129     -1098.7918136743 -9.15E-07
  Decoupling Energy:                                               0.0674962680
  Recoupling Energy:                                              -0.0068222797
    93 OT DIIS     0.15E+00    1.0     0.00000142     -1098.7918146271 -9.53E-07
  Decoupling Energy:                                               0.0674997122
  Recoupling Energy:                                              -0.0068223473
    94 OT DIIS     0.15E+00    1.0     0.00000146     -1098.7918163476 -1.72E-06
  Decoupling Energy:                                               0.0675001588
  Recoupling Energy:                                              -0.0068223568
    95 OT DIIS     0.15E+00    1.0     0.00000139     -1098.7918170226 -6.75E-07
  Decoupling Energy:                                               0.0674986268
  Recoupling Energy:                                              -0.0068223213
    96 OT DIIS     0.15E+00    1.0     0.00000126     -1098.7918177402 -7.18E-07
  Decoupling Energy:                                               0.0675042215
  Recoupling Energy:                                              -0.0068224459
    97 OT DIIS     0.15E+00    1.0     0.00000173     -1098.7918202696 -2.53E-06
  Decoupling Energy:                                               0.0675025377
  Recoupling Energy:                                              -0.0068223941
    98 OT DIIS     0.15E+00    1.0     0.00000131     -1098.7918219997 -1.73E-06
  Decoupling Energy:                                               0.0675113447
  Recoupling Energy:                                              -0.0068225880
    99 OT DIIS     0.15E+00    1.1     0.00000250     -1098.7918252735 -3.27E-06
  Decoupling Energy:                                               0.0675135534
  Recoupling Energy:                                              -0.0068226237
   100 OT DIIS     0.15E+00    1.0     0.00000283     -1098.7918264497 -1.18E-06
  Decoupling Energy:                                               0.0675143466
  Recoupling Energy:                                              -0.0068226422
   101 OT SD       0.15E+00    1.0     0.00000280     -1098.7918269382 -4.88E-07
  Decoupling Energy:                                               0.0675020669
  Recoupling Energy:                                              -0.0068222635
   102 OT SD       0.15E+00    1.0     0.00000579     -1098.7918267225  2.16E-07
  Decoupling Energy:                                               0.0675170845
  Recoupling Energy:                                              -0.0068228887
   103 OT DIIS     0.15E+00    1.0     0.00001538     -1098.7918240235  2.70E-06
  Decoupling Energy:                                               0.0675040051
  Recoupling Energy:                                              -0.0068224034
   104 OT SD       0.15E+00    1.0     0.00000119     -1098.7918268920 -2.87E-06
  Decoupling Energy:                                               0.0675030626
  Recoupling Energy:                                              -0.0068223829
   105 OT DIIS     0.15E+00    1.0     0.00000184     -1098.7918269778 -8.58E-08
  Decoupling Energy:                                               0.0675030400
  Recoupling Energy:                                              -0.0068223826
   106 OT SD       0.15E+00    1.0     0.00000107     -1098.7918279413 -9.64E-07
  Decoupling Energy:                                               0.0675015962
  Recoupling Energy:                                              -0.0068223423
   107 OT DIIS     0.15E+00    1.0     0.00000150     -1098.7918280313 -9.00E-08
  Decoupling Energy:                                               0.0675000767
  Recoupling Energy:                                              -0.0068223117
   108 OT DIIS     0.15E+00    1.0     0.00000102     -1098.7918291298 -1.10E-06
  Decoupling Energy:                                               0.0675017703
  Recoupling Energy:                                              -0.0068223460
   109 OT SD       0.15E+00    1.0     0.00000114     -1098.7918307161 -1.59E-06
  Decoupling Energy:                                               0.0674986564
  Recoupling Energy:                                              -0.0068222509
   110 OT DIIS     0.15E+00    1.0     0.00000208     -1098.7918307618 -4.57E-08
  Decoupling Energy:                                               0.0675009287
  Recoupling Energy:                                              -0.0068223103
   111 OT DIIS     0.15E+00    1.0     0.00000101     -1098.7918321730 -1.41E-06
  Decoupling Energy:                                               0.0675036254
  Recoupling Energy:                                              -0.0068223579
   112 OT SD       0.15E+00    1.0     0.00000141     -1098.7918338009 -1.63E-06
  Decoupling Energy:                                               0.0674990853
  Recoupling Energy:                                              -0.0068222240
   113 OT SD       0.15E+00    1.0     0.00000290     -1098.7918337932  7.71E-09
  Decoupling Energy:                                               0.0675055106
  Recoupling Energy:                                              -0.0068224757
   114 OT DIIS     0.15E+00    1.0     0.00000829     -1098.7918330880  7.05E-07
  Decoupling Energy:                                               0.0675022822
  Recoupling Energy:                                              -0.0068223189
   115 OT DIIS     0.15E+00    1.0     0.00000089     -1098.7918350308 -1.94E-06

  *** SCF run converged in   115 steps ***


  Electronic density on regular grids:       -654.0000008476       -0.0000008476
  Core density on regular grids:              654.9999999993       -0.0000000007
  Total charge density on r-space grids:        0.9999991517
  Total charge density g-space grids:           0.9999991517

  Overlap energy of the core charge distribution:               0.00004213532864
  Self energy of the core charge distribution:              -2459.11679630764229
  Core Hamiltonian energy:                                    751.03827507774861
  Hartree energy:                                            1002.26599745217243
  Exchange-correlation energy:                               -294.03608275262934
  QM/MM Electrostatic energy:                                 -98.94327063574411

  Total energy:                                             -1098.79183503076592
  Decoupling Energy:                                               0.0675043089
  Recoupling Energy:                                              -0.0068223499

 ENERGY| Total FORCE_EVAL ( QMMM ) energy [a.u.]:          -1469.875704553234755

 MD_INI| MD initialization
 MD_INI| Potential energy [hartree]                          -0.146987570455E+04
 MD_INI| Total kinetic energy [hartree]                       0.215076797492E+03
 MD_INI| QM kinetic energy [hartree]                          0.369606607592E+00
 MD_INI| Total temperature [K]                                        300.000000
 MD_INI| QM temperature [K]                                           307.542546
 MD_INI| Cell volume [bohr^3]                                 9.853827160554E+06
 MD_INI| Cell volume [ang^3]                                  1.460186515536E+06
 MD_INI| Cell lengths [bohr]      2.39870119E+02  2.39870119E+02  1.71258698E+02
 MD_INI| Cell lengths [ang]       1.26933800E+02  1.26933800E+02  9.06262000E+01
 MD_INI| Cell angles [deg]        9.00000000E+01  9.00000000E+01  9.00000000E+01

  Translating the system in order to center the QM fragment in the QM box.

 Number of electrons:                                                        654
 Number of occupied orbitals:                                                327
 Number of molecular orbitals:                                               327

 Number of orbital functions:                                               2193
 Number of independent orbital functions:                                   2193

 Extrapolation method: ASPC


 SCF WAVEFUNCTION OPTIMIZATION

  ----------------------------------- OT ---------------------------------------
  Minimizer      : DIIS                : direct inversion
                                         in the iterative subspace
                                         using   7 DIIS vectors
                                         safer DIIS on
  Preconditioner : FULL_ALL            : diagonalization, state selective
  Precond_solver : DEFAULT
  stepsize       :    0.15000000                  energy_gap     :    0.08000000
  eps_taylor     :   0.10000E-15                  max_taylor     :             4
  ----------------------------------- OT ---------------------------------------

  Step     Update method      Time    Convergence         Total energy    Change
  ------------------------------------------------------------------------------
  Decoupling Energy:                                               0.0676686354
  Recoupling Energy:                                              -0.0068237669
     1 OT DIIS     0.15E+00    1.7     0.00038785     -1098.3649187930 -1.10E+03
  Decoupling Energy:                                               0.0674457736
  Recoupling Energy:                                              -0.0068207506
     2 OT DIIS     0.15E+00    1.0     0.00028126     -1098.3740109585 -9.09E-03
  Decoupling Energy:                                               0.0676534958
  Recoupling Energy:                                              -0.0068214065
     3 OT DIIS     0.15E+00    1.0     0.00045485     -1098.3736135734  3.97E-04
  Decoupling Energy:                                               0.0674800261
  Recoupling Energy:                                              -0.0068214011
     4 OT DIIS     0.15E+00    1.0     0.00017690     -1098.3760484284 -2.43E-03
  Decoupling Energy:                                               0.0674311787
  Recoupling Energy:                                              -0.0068207549
     5 OT DIIS     0.15E+00    1.0     0.00005930     -1098.3765468335 -4.98E-04
  Decoupling Energy:                                               0.0674480608
  Recoupling Energy:                                              -0.0068203578
     6 OT DIIS     0.15E+00    1.0     0.00004396     -1098.3765895464 -4.27E-05
  Decoupling Energy:                                               0.0674579746
  Recoupling Energy:                                              -0.0068208252
     7 OT DIIS     0.15E+00    1.0     0.00001585     -1098.3766115995 -2.21E-05
  Decoupling Energy:                                               0.0674444216
  Recoupling Energy:                                              -0.0068207260
     8 OT DIIS     0.15E+00    1.0     0.00000826     -1098.3766177053 -6.11E-06
  Decoupling Energy:                                               0.0674431374
  Recoupling Energy:                                              -0.0068205897
     9 OT DIIS     0.15E+00    1.0     0.00000614     -1098.3766200308 -2.33E-06
  Decoupling Energy:                                               0.0674463762
  Recoupling Energy:                                              -0.0068208245
    10 OT DIIS     0.15E+00    1.0     0.00000529     -1098.3766227931 -2.76E-06
  Decoupling Energy:                                               0.0674354968
  Recoupling Energy:                                              -0.0068206240
    11 OT DIIS     0.15E+00    1.0     0.00000391     -1098.3766254515 -2.66E-06
  Decoupling Energy:                                               0.0674363621
  Recoupling Energy:                                              -0.0068207094
    12 OT DIIS     0.15E+00    1.0     0.00000309     -1098.3766277155 -2.26E-06
  Decoupling Energy:                                               0.0674337844
  Recoupling Energy:                                              -0.0068207256
    13 OT DIIS     0.15E+00    1.0     0.00000291     -1098.3766291962 -1.48E-06
  Decoupling Energy:                                               0.0674334158
  Recoupling Energy:                                              -0.0068207028
    14 OT DIIS     0.15E+00    1.0     0.00000290     -1098.3766299657 -7.69E-07
  Decoupling Energy:                                               0.0674327935
  Recoupling Energy:                                              -0.0068207267
    15 OT DIIS     0.15E+00    1.0     0.00000264     -1098.3766307727 -8.07E-07
  Decoupling Energy:                                               0.0674319913
  Recoupling Energy:                                              -0.0068207300
    16 OT DIIS     0.15E+00    1.0     0.00000242     -1098.3766314294 -6.57E-07
  Decoupling Energy:                                               0.0674326734
  Recoupling Energy:                                              -0.0068207337
    17 OT DIIS     0.15E+00    1.0     0.00000213     -1098.3766319815 -5.52E-07
  Decoupling Energy:                                               0.0674333917
  Recoupling Energy:                                              -0.0068207737
    18 OT DIIS     0.15E+00    1.0     0.00000187     -1098.3766328156 -8.34E-07
  Decoupling Energy:                                               0.0674305850
  Recoupling Energy:                                              -0.0068207157
    19 OT DIIS     0.15E+00    1.0     0.00000170     -1098.3766333297 -5.14E-07
  Decoupling Energy:                                               0.0674312188
  Recoupling Energy:                                              -0.0068207489
    20 OT DIIS     0.15E+00    1.0     0.00000150     -1098.3766339430 -6.13E-07
  Decoupling Energy:                                               0.0674308083
  Recoupling Energy:                                              -0.0068207379
    21 OT DIIS     0.15E+00    1.0     0.00000140     -1098.3766344312 -4.88E-07
  Decoupling Energy:                                               0.0674299874
  Recoupling Energy:                                              -0.0068207237
    22 OT DIIS     0.15E+00    1.0     0.00000141     -1098.3766347849 -3.54E-07
  Decoupling Energy:                                               0.0674290029
  Recoupling Energy:                                              -0.0068207129
    23 OT DIIS     0.15E+00    1.0     0.00000139     -1098.3766351395 -3.55E-07
  Decoupling Energy:                                               0.0674285681
  Recoupling Energy:                                              -0.0068207030
    24 OT DIIS     0.15E+00    1.0     0.00000135     -1098.3766354041 -2.65E-07
  Decoupling Energy:                                               0.0674284022
  Recoupling Energy:                                              -0.0068206934
    25 OT DIIS     0.15E+00    1.0     0.00000126     -1098.3766357062 -3.02E-07
  Decoupling Energy:                                               0.0674278928
  Recoupling Energy:                                              -0.0068206887
    26 OT DIIS     0.15E+00    1.0     0.00000115     -1098.3766360690 -3.63E-07
  Decoupling Energy:                                               0.0674263995
  Recoupling Energy:                                              -0.0068206538
    27 OT DIIS     0.15E+00    1.0     0.00000110     -1098.3766362889 -2.20E-07
  Decoupling Energy:                                               0.0674262812
  Recoupling Energy:                                              -0.0068206577
    28 OT DIIS     0.15E+00    1.0     0.00000104     -1098.3766365432 -2.54E-07
  Decoupling Energy:                                               0.0674260724
  Recoupling Energy:                                              -0.0068206467
    29 OT DIIS     0.15E+00    1.0     0.00000101     -1098.3766367943 -2.51E-07
  Decoupling Energy:                                               0.0674256116
  Recoupling Energy:                                              -0.0068206359
    30 OT DIIS     0.15E+00    1.0     0.00000101     -1098.3766370327 -2.38E-07
  Decoupling Energy:                                               0.0674251631
  Recoupling Energy:                                              -0.0068206301
    31 OT DIIS     0.15E+00    1.0     0.00000101     -1098.3766372741 -2.41E-07
  Decoupling Energy:                                               0.0674251521
  Recoupling Energy:                                              -0.0068206264
    32 OT DIIS     0.15E+00    1.0     0.00000099     -1098.3766374497 -1.76E-07

  *** SCF run converged in    32 steps ***


  Electronic density on regular grids:       -654.0000005663       -0.0000005663
  Core density on regular grids:              654.9999999988       -0.0000000012
  Total charge density on r-space grids:        0.9999994325
  Total charge density g-space grids:           0.9999994325

  Overlap energy of the core charge distribution:               0.00004332476227
  Self energy of the core charge distribution:              -2459.11679630764229
  Core Hamiltonian energy:                                    750.78618727105561
  Hartree energy:                                            1002.45030786747520
  Exchange-correlation energy:                               -293.96934611367737
  QM/MM Electrostatic energy:                                 -98.52703349164975

  Total energy:                                             -1098.37663744967631
  Decoupling Energy:                                               0.0674253564
  Recoupling Energy:                                              -0.0068206266

 ENERGY| Total FORCE_EVAL ( QMMM ) energy [a.u.]:          -1447.997668670353960

 MD| ***************************************************************************
 MD| Step number                                                               1
 MD| Time [fs]                                                          1.000000
 MD| Conserved quantity [hartree]                            -0.124929046421E+04
 MD| ---------------------------------------------------------------------------
 MD|                                          Instantaneous             Averages
 MD| CPU time per MD step [s]                    243.465054           243.465054
 MD| Energy drift per atom [K]           0.115251058670E+02   0.000000000000E+00
 MD| Potential energy [hartree]         -0.144799766867E+04  -0.144799766867E+04
 MD| Total kinetic energy [hartree]      0.198707204464E+03   0.198707204464E+03
 MD| QM kinetic energy [hartree]         0.373152758308E+00   0.373152758308E+00
 MD| Total temperature [K]                       277.166863           277.166863
 MD| QM temperature [K]                          310.493230           310.493230
 MD| ***************************************************************************

  Translating the system in order to center the QM fragment in the QM box.

 Number of electrons:                                                        654
 Number of occupied orbitals:                                                327
 Number of molecular orbitals:                                               327

 Number of orbital functions:                                               2193
 Number of independent orbital functions:                                   2193

 Extrapolation method: ASPC


 SCF WAVEFUNCTION OPTIMIZATION

  ----------------------------------- OT ---------------------------------------
  Minimizer      : DIIS                : direct inversion
                                         in the iterative subspace
                                         using   7 DIIS vectors
                                         safer DIIS on
  Preconditioner : FULL_ALL            : diagonalization, state selective
  Precond_solver : DEFAULT
  stepsize       :    0.15000000                  energy_gap     :    0.08000000
  eps_taylor     :   0.10000E-15                  max_taylor     :             4
  ----------------------------------- OT ---------------------------------------

  Step     Update method      Time    Convergence         Total energy    Change
  ------------------------------------------------------------------------------
  Decoupling Energy:                                               0.0674087147
  Recoupling Energy:                                              -0.0068195658
     1 OT DIIS     0.15E+00    1.7     0.00014519     -1097.1103378323 -1.10E+03
  Decoupling Energy:                                               0.0673603282
  Recoupling Energy:                                              -0.0068180702
     2 OT DIIS     0.15E+00    1.0     0.00010325     -1097.1115409626 -1.20E-03
  Decoupling Energy:                                               0.0674395318
  Recoupling Energy:                                              -0.0068200452
     3 OT DIIS     0.15E+00    1.0     0.00014075     -1097.1115713098 -3.03E-05
  Decoupling Energy:                                               0.0673878730
  Recoupling Energy:                                              -0.0068185923
     4 OT DIIS     0.15E+00    1.0     0.00007183     -1097.1118083513 -2.37E-04
  Decoupling Energy:                                               0.0673953812
  Recoupling Energy:                                              -0.0068183909
     5 OT DIIS     0.15E+00    1.0     0.00003195     -1097.1118772684 -6.89E-05
  Decoupling Energy:                                               0.0674105745
  Recoupling Energy:                                              -0.0068193000
     6 OT DIIS     0.15E+00    1.0     0.00001255     -1097.1118920101 -1.47E-05
  Decoupling Energy:                                               0.0673970815
  Recoupling Energy:                                              -0.0068186946
     7 OT DIIS     0.15E+00    1.0     0.00000812     -1097.1118947114 -2.70E-06
  Decoupling Energy:                                               0.0674024059
  Recoupling Energy:                                              -0.0068187638
     8 OT DIIS     0.15E+00    1.0     0.00000657     -1097.1118960582 -1.35E-06
  Decoupling Energy:                                               0.0674065536
  Recoupling Energy:                                              -0.0068189105
     9 OT DIIS     0.15E+00    1.0     0.00000358     -1097.1118970140 -9.56E-07
  Decoupling Energy:                                               0.0674111452
  Recoupling Energy:                                              -0.0068188890
    10 OT DIIS     0.15E+00    1.0     0.00000297     -1097.1118983353 -1.32E-06
  Decoupling Energy:                                               0.0674154402
  Recoupling Energy:                                              -0.0068189174
    11 OT DIIS     0.15E+00    1.0     0.00000243     -1097.1118996427 -1.31E-06
  Decoupling Energy:                                               0.0674242576
  Recoupling Energy:                                              -0.0068189804
    12 OT DIIS     0.15E+00    1.0     0.00000213     -1097.1119008385 -1.20E-06
  Decoupling Energy:                                               0.0674287015
  Recoupling Energy:                                              -0.0068190076
    13 OT DIIS     0.15E+00    1.0     0.00000223     -1097.1119015143 -6.76E-07
  Decoupling Energy:                                               0.0674307644
  Recoupling Energy:                                              -0.0068190346
    14 OT DIIS     0.15E+00    1.0     0.00000192     -1097.1119019003 -3.86E-07
  Decoupling Energy:                                               0.0674335324
  Recoupling Energy:                                              -0.0068190148
    15 OT DIIS     0.15E+00    1.0     0.00000181     -1097.1119024537 -5.53E-07
  Decoupling Energy:                                               0.0674373523
  Recoupling Energy:                                              -0.0068190772
    16 OT DIIS     0.15E+00    1.0     0.00000186     -1097.1119028260 -3.72E-07
  Decoupling Energy:                                               0.0674391098
  Recoupling Energy:                                              -0.0068191108
    17 OT DIIS     0.15E+00    1.0     0.00000164     -1097.1119030931 -2.67E-07
  Decoupling Energy:                                               0.0674412123
  Recoupling Energy:                                              -0.0068190909
    18 OT DIIS     0.15E+00    1.0     0.00000137     -1097.1119036032 -5.10E-07
  Decoupling Energy:                                               0.0674429084
  Recoupling Energy:                                              -0.0068191221
    19 OT DIIS     0.15E+00    1.0     0.00000126     -1097.1119039490 -3.46E-07
  Decoupling Energy:                                               0.0674443026
  Recoupling Energy:                                              -0.0068191308
    20 OT DIIS     0.15E+00    1.0     0.00000119     -1097.1119043548 -4.06E-07
  Decoupling Energy:                                               0.0674445687
  Recoupling Energy:                                              -0.0068191316
    21 OT DIIS     0.15E+00    1.0     0.00000120     -1097.1119046680 -3.13E-07
  Decoupling Energy:                                               0.0674440827
  Recoupling Energy:                                              -0.0068191331
    22 OT DIIS     0.15E+00    1.0     0.00000119     -1097.1119048929 -2.25E-07
  Decoupling Energy:                                               0.0674432124
  Recoupling Energy:                                              -0.0068191136
    23 OT DIIS     0.15E+00    1.0     0.00000113     -1097.1119052177 -3.25E-07
  Decoupling Energy:                                               0.0674431223
  Recoupling Energy:                                              -0.0068191267
    24 OT DIIS     0.15E+00    1.0     0.00000116     -1097.1119054656 -2.48E-07
  Decoupling Energy:                                               0.0674421379
  Recoupling Energy:                                              -0.0068191223
    25 OT DIIS     0.15E+00    1.0     0.00000112     -1097.1119056870 -2.21E-07
  Decoupling Energy:                                               0.0674408185
  Recoupling Energy:                                              -0.0068190935
    26 OT DIIS     0.15E+00    1.0     0.00000102     -1097.1119059957 -3.09E-07
  Decoupling Energy:                                               0.0674399076
  Recoupling Energy:                                              -0.0068191000
    27 OT DIIS     0.15E+00    1.0     0.00000112     -1097.1119062845 -2.89E-07
  Decoupling Energy:                                               0.0674395752
  Recoupling Energy:                                              -0.0068190960
    28 OT DIIS     0.15E+00    1.0     0.00000098     -1097.1119063399 -5.54E-08

  *** SCF run converged in    28 steps ***


  Electronic density on regular grids:       -654.0000002644       -0.0000002644
  Core density on regular grids:              654.9999999993       -0.0000000007
  Total charge density on r-space grids:        0.9999997349
  Total charge density g-space grids:           0.9999997349

  Overlap energy of the core charge distribution:               0.00004731806995
  Self energy of the core charge distribution:              -2459.11679630764229
  Core Hamiltonian energy:                                    750.43690850614144
  Hartree energy:                                            1002.71670842632898
  Exchange-correlation energy:                               -293.87544489066022
  QM/MM Electrostatic energy:                                 -97.27332939212801

  Total energy:                                             -1097.11190633989031
  Decoupling Energy:                                               0.0674380206
  Recoupling Energy:                                              -0.0068190789

 ENERGY| Total FORCE_EVAL ( QMMM ) energy [a.u.]:          -1445.975610954520562

 MD| ***************************************************************************
 MD| Step number                                                               2
 MD| Time [fs]                                                          2.000000
 MD| Conserved quantity [hartree]                            -0.125000601141E+04
 MD| ---------------------------------------------------------------------------
 MD|                                          Instantaneous             Averages
 MD| CPU time per MD step [s]                     69.125475           156.295265
 MD| Energy drift per atom [K]           0.100279936223E+02   0.501399681116E+01
 MD| Potential energy [hartree]         -0.144597561095E+04  -0.144698663981E+04
 MD| Total kinetic energy [hartree]      0.195969599546E+03   0.197338402005E+03
 MD| QM kinetic energy [hartree]         0.375000091586E+00   0.374076424947E+00
 MD| Total temperature [K]                       273.348313           275.257588
 MD| QM temperature [K]                          312.030361           311.261795
 MD| ***************************************************************************

  Translating the system in order to center the QM fragment in the QM box.

 Number of electrons:                                                        654
 Number of occupied orbitals:                                                327
 Number of molecular orbitals:                                               327

 Number of orbital functions:                                               2193
 Number of independent orbital functions:                                   2193

 Extrapolation method: ASPC


 SCF WAVEFUNCTION OPTIMIZATION

  ----------------------------------- OT ---------------------------------------
  Minimizer      : DIIS                : direct inversion
                                         in the iterative subspace
                                         using   7 DIIS vectors
                                         safer DIIS on
  Preconditioner : FULL_ALL            : diagonalization, state selective
  Precond_solver : DEFAULT
  stepsize       :    0.15000000                  energy_gap     :    0.08000000
  eps_taylor     :   0.10000E-15                  max_taylor     :             4
  ----------------------------------- OT ---------------------------------------

  Step     Update method      Time    Convergence         Total energy    Change
  ------------------------------------------------------------------------------
  Decoupling Energy:                                               0.0675533542
  Recoupling Energy:                                              -0.0068193286
     1 OT DIIS     0.15E+00    1.7     0.00011068     -1095.1861428845 -1.10E+03
  Decoupling Energy:                                               0.0674828699
  Recoupling Energy:                                              -0.0068161213
     2 OT DIIS     0.15E+00    1.0     0.00009181     -1095.1868077950 -6.65E-04
  Decoupling Energy:                                               0.0675255746
  Recoupling Energy:                                              -0.0068195337
     3 OT DIIS     0.15E+00    1.0     0.00012657     -1095.1867968393  1.10E-05
  Decoupling Energy:                                               0.0675625716
  Recoupling Energy:                                              -0.0068188742
     4 OT DIIS     0.15E+00    1.0     0.00005633     -1095.1869797082 -1.83E-04
  Decoupling Energy:                                               0.0675100189
  Recoupling Energy:                                              -0.0068172536
     5 OT DIIS     0.15E+00    1.0     0.00003097     -1095.1870152735 -3.56E-05
  Decoupling Energy:                                               0.0675174112
  Recoupling Energy:                                              -0.0068179643
     6 OT DIIS     0.15E+00    1.0     0.00000933     -1095.1870290085 -1.37E-05
  Decoupling Energy:                                               0.0675224417
  Recoupling Energy:                                              -0.0068178965
     7 OT DIIS     0.15E+00    1.0     0.00000746     -1095.1870301247 -1.12E-06
  Decoupling Energy:                                               0.0675214752
  Recoupling Energy:                                              -0.0068178627
     8 OT DIIS     0.15E+00    1.0     0.00000372     -1095.1870310314 -9.07E-07
  Decoupling Energy:                                               0.0675209048
  Recoupling Energy:                                              -0.0068178973
     9 OT DIIS     0.15E+00    1.0     0.00000224     -1095.1870314803 -4.49E-07
  Decoupling Energy:                                               0.0675212930
  Recoupling Energy:                                              -0.0068178620
    10 OT DIIS     0.15E+00    1.0     0.00000191     -1095.1870319666 -4.86E-07
  Decoupling Energy:                                               0.0675235752
  Recoupling Energy:                                              -0.0068178975
    11 OT DIIS     0.15E+00    1.0     0.00000164     -1095.1870325357 -5.69E-07
  Decoupling Energy:                                               0.0675241280
  Recoupling Energy:                                              -0.0068178675
    12 OT DIIS     0.15E+00    1.0     0.00000156     -1095.1870329983 -4.63E-07
  Decoupling Energy:                                               0.0675254306
  Recoupling Energy:                                              -0.0068178813
    13 OT DIIS     0.15E+00    1.0     0.00000160     -1095.1870333145 -3.16E-07
  Decoupling Energy:                                               0.0675272139
  Recoupling Energy:                                              -0.0068179051
    14 OT DIIS     0.15E+00    1.0     0.00000132     -1095.1870335185 -2.04E-07
  Decoupling Energy:                                               0.0675281749
  Recoupling Energy:                                              -0.0068178838
    15 OT DIIS     0.15E+00    1.0     0.00000125     -1095.1870337519 -2.33E-07
  Decoupling Energy:                                               0.0675291629
  Recoupling Energy:                                              -0.0068178956
    16 OT DIIS     0.15E+00    1.0     0.00000122     -1095.1870339549 -2.03E-07
  Decoupling Energy:                                               0.0675300182
  Recoupling Energy:                                              -0.0068179091
    17 OT DIIS     0.15E+00    1.0     0.00000107     -1095.1870340971 -1.42E-07
  Decoupling Energy:                                               0.0675312538
  Recoupling Energy:                                              -0.0068178969
    18 OT DIIS     0.15E+00    1.0     0.00000096     -1095.1870343498 -2.53E-07

  *** SCF run converged in    18 steps ***


  Electronic density on regular grids:       -654.0000000154       -0.0000000154
  Core density on regular grids:              654.9999999996       -0.0000000004
  Total charge density on r-space grids:        0.9999999842
  Total charge density g-space grids:           0.9999999842

  Overlap energy of the core charge distribution:               0.00004961138288
  Self energy of the core charge distribution:              -2459.11679630764229
  Core Hamiltonian energy:                                    750.02608463133572
  Hartree energy:                                            1003.02378196972995
  Exchange-correlation energy:                               -293.76776805796112
  QM/MM Electrostatic energy:                                 -95.35238619669394

  Total energy:                                             -1095.18703434984855
  Decoupling Energy:                                               0.0675326283
  Recoupling Energy:                                              -0.0068179128

 ENERGY| Total FORCE_EVAL ( QMMM ) energy [a.u.]:          -1460.415579750013649

 MD| ***************************************************************************
 MD| Step number                                                               3
 MD| Time [fs]                                                          3.000000
 MD| Conserved quantity [hartree]                            -0.125224647682E+04
 MD| ---------------------------------------------------------------------------
 MD|                                          Instantaneous             Averages
 MD| CPU time per MD step [s]                     58.487492           123.692674
 MD| Energy drift per atom [K]           0.534035289289E+01   0.512278217173E+01
 MD| Potential energy [hartree]         -0.146041557975E+04  -0.145146295312E+04
 MD| Total kinetic energy [hartree]      0.208169102928E+03   0.200948635646E+03
 MD| QM kinetic energy [hartree]         0.389729390192E+00   0.379294080029E+00
 MD| Total temperature [K]                       290.364798           280.293325
 MD| QM temperature [K]                          324.286327           315.603306
 MD| ***************************************************************************

  Translating the system in order to center the QM fragment in the QM box.

 Number of electrons:                                                        654
 Number of occupied orbitals:                                                327
 Number of molecular orbitals:                                               327

 Number of orbital functions:                                               2193
 Number of independent orbital functions:                                   2193

 Extrapolation method: ASPC


 SCF WAVEFUNCTION OPTIMIZATION

  ----------------------------------- OT ---------------------------------------
  Minimizer      : DIIS                : direct inversion
                                         in the iterative subspace
                                         using   7 DIIS vectors
                                         safer DIIS on
  Preconditioner : FULL_ALL            : diagonalization, state selective
  Precond_solver : DEFAULT
  stepsize       :    0.15000000                  energy_gap     :    0.08000000
  eps_taylor     :   0.10000E-15                  max_taylor     :             4
  ----------------------------------- OT ---------------------------------------

  Step     Update method      Time    Convergence         Total energy    Change
  ------------------------------------------------------------------------------
  Decoupling Energy:                                               0.0677315084
  Recoupling Energy:                                              -0.0068195192
     1 OT DIIS     0.15E+00    1.7     0.00008419     -1092.7816099315 -1.09E+03
  Decoupling Energy:                                               0.0676140929
  Recoupling Energy:                                              -0.0068141669
     2 OT DIIS     0.15E+00    1.0     0.00009952     -1092.7819022478 -2.92E-04
  Decoupling Energy:                                               0.0676505691
  Recoupling Energy:                                              -0.0068178719
     3 OT DIIS     0.15E+00    1.0     0.00009201     -1092.7819649052 -6.27E-05
  Decoupling Energy:                                               0.0677062110
  Recoupling Energy:                                              -0.0068185964
     4 OT DIIS     0.15E+00    1.0     0.00005039     -1092.7820488330 -8.39E-05
  Decoupling Energy:                                               0.0676509085
  Recoupling Energy:                                              -0.0068162288
     5 OT DIIS     0.15E+00    1.0     0.00002281     -1092.7820811517 -3.23E-05
  Decoupling Energy:                                               0.0676472834
  Recoupling Energy:                                              -0.0068166471
     6 OT DIIS     0.15E+00    1.0     0.00000797     -1092.7820892212 -8.07E-06
  Decoupling Energy:                                               0.0676530667
  Recoupling Energy:                                              -0.0068167054
     7 OT DIIS     0.15E+00    1.0     0.00000582     -1092.7820901681 -9.47E-07
  Decoupling Energy:                                               0.0676502146
  Recoupling Energy:                                              -0.0068166354
     8 OT DIIS     0.15E+00    1.0     0.00000316     -1092.7820907741 -6.06E-07
  Decoupling Energy:                                               0.0676475313
  Recoupling Energy:                                              -0.0068165803
     9 OT DIIS     0.15E+00    1.0     0.00000209     -1092.7820911844 -4.10E-07
[...]
 flops     5 x     7 x     5           7442846950       0.0%      0.0%    100.0%
 flops    13 x    32 x     7           8917708800       0.0%      0.0%    100.0%
 flops    13 x     7 x    32           8917708800       0.0%      0.0%    100.0%
 flops    13 x     7 x     5          16376658480       0.0%      0.0%    100.0%
 flops     5 x     7 x    13          16376658480       0.0%      0.0%    100.0%
 flops    13 x     7 x    13          35788745356       0.0%      0.0%    100.0%
 flops     5 x     5 x    32          42046944000       0.0%      0.0%    100.0%
 flops    13 x     5 x    32          91778252800       0.0%      0.0%    100.0%
 flops     5 x    13 x    32          91827340800       0.0%      0.0%    100.0%
 flops    32 x    32 x    32         112918528000       0.0%      0.0%    100.0%
 flops    32 x    32 x     5         149126144000       0.0%      0.0%    100.0%
 flops     5 x    32 x    32         185278361600       0.0%      0.0%    100.0%
 flops    13 x    13 x    32         201007788800       0.0%      0.0%    100.0%
 flops    32 x    32 x    13         328295219200       0.0%      0.0%    100.0%
 flops     5 x    32 x     5         340244432000       0.0%      0.0%    100.0%
 flops    13 x    32 x    32         407882874880       0.0%      0.0%    100.0%
 flops    13 x    32 x     5         748647244800       0.0%      0.0%    100.0%
 flops     5 x    32 x    13         748647244800       0.0%      0.0%    100.0%
 flops    13 x    32 x    13        1636056930560       0.0%      0.0%    100.0%
 flops inhomo. stacks                           0       0.0%      0.0%      0.0%
 flops total                         5.223987E+12       0.0%      0.0%    100.0%
 flops max/rank                    389.378718E+09       0.0%      0.0%    100.0%
 matmuls inhomo. stacks                         0       0.0%      0.0%      0.0%
 matmuls total                          969389322       0.0%      0.0%    100.0%
 number of processed stacks               8082865       0.0%      0.0%    100.0%
 average stack size                                     0.0     188.3     119.9
 marketing flops                     5.682660E+12
 -------------------------------------------------------------------------------
 # multiplications                           5531
 max memory usage/rank               2.235920E+09
 # max total images/rank                        1
 # max 3D layers                                1
 # MPI messages exchanged                  530976
 MPI messages size (bytes):
  total size                       230.982926E+09
  min size                           0.000000E+00
  max size                           2.437632E+06
  average size                     435.015750E+03
 MPI breakdown and total messages size (bytes):
             size <=      128                 924                        0
       128 < size <=     8192                   0                        0
      8192 < size <=    32768               14382                470245416
     32768 < size <=   131072              214470              11762449872
    131072 < size <=  4194304              301200             218757078744
   4194304 < size <= 16777216                   0                        0
  16777216 < size                               0                        0
 -------------------------------------------------------------------------------
 -                                                                             -
 -                      DBCSR MESSAGE PASSING PERFORMANCE                      -
 -                                                                             -
 -------------------------------------------------------------------------------
 ROUTINE             CALLS      AVE VOLUME [Bytes]
 MP_Bcast               41                     12.
 MP_Allreduce        19991                      8.
 MP_Alltoall         17557                  43782.
 MP_ISend            88468                 179743.
 MP_IRecv            88468                 174993.
 -------------------------------------------------------------------------------

 -------------------------------------------------------------------------------
 -                                                                             -
 -                                GRID STATISTICS                              -
 -                                                                             -
 -------------------------------------------------------------------------------
 LP    KERNEL             BACKEND                              COUNT     PERCENT
 3     collocate ortho    GPU                               86074321      24.31%
 3     integrate ortho    GPU                               85298327      24.09%
 2     collocate ortho    GPU                               56030402      15.82%
 2     integrate ortho    GPU                               54583213      15.41%
 4     integrate ortho    GPU                               36255800      10.24%
 4     collocate ortho    GPU                               34935048       9.86%
 5     integrate ortho    GPU                                 902431       0.25%
 0     collocate general  REF                                  28336       0.01%
 1     integrate general  REF                                  28336       0.01%
 -------------------------------------------------------------------------------

 MEMORY| Estimated peak process memory [MiB]                                2177

 -------------------------------------------------------------------------------
 -                                                                             -
 -                         MESSAGE PASSING PERFORMANCE                         -
 -                                                                             -
 -------------------------------------------------------------------------------

 ROUTINE             CALLS      AVE VOLUME [Bytes]
 MP_Group                8
 MP_Bcast            10325                8767351.
 MP_Allreduce         9522                  16870.
 MP_Sync               163
 MP_Alltoall          5380               55672358.
 MP_SendRecv          3052                  72198.
 MP_ISendRecv        16260                 119232.
 MP_Wait             42165
 MP_comm_split          72
 MP_ISend            22527                1177348.
 MP_IRecv            22520                1177507.
 MP_Recv               160                 561408.
 -------------------------------------------------------------------------------


 -------------------------------------------------------------------------------
 -                                                                             -
 -                           R E F E R E N C E S                               -
 -                                                                             -
 -------------------------------------------------------------------------------
 
 CP2K version 8.2, the CP2K developers group (2021).
 CP2K is freely available from https://www.cp2k.org/ .

 Kuehne,Thomas D.; Iannuzzi,Marcella; Del Ben,Mauro;
 Rybkin,Vladimir V.; Seewald,Patrick; Stein,Frederick; Laino,Teodoro;
 Khaliullin,Rustam Z.; Schuett,Ole; Schiffmann,Florian; Golze,Dorothea;
 Wilhelm,Jan; Chulkov,Sergey; Bani-Hashemian,Mohammad Hossein;
 Weber,Valery; Borstnik,Urban; Taillefumier,Mathieu;
 Jakobovits,Alice Shoshana; Lazzaro,Alfio; Pabst,Hans; Mueller,Tiziano;
 Schade,Robert; Guidon,Manuel; Andermatt,Samuel; Holmberg,Nico;
 Schenter,Gregory K.; Hehn,Anna; Bussy,Augustin; Belleflamme,Fabian;
 Tabacchi,Gloria; Gloess,Andreas; Lass,Michael; Bethune,Iain;
 Mundy,Christopher J.; Plessl,Christian; Watkins,Matt;
 VandeVondele,Joost; Krack,Matthias; Hutter,Juerg. 
 The Journal of Chemical Physics, 152 (19), (2020). 
 CP2K: An electronic structure and molecular dynamics software package -
 Quickstep: Efficient and accurate electronic structure calculations.
 https://doi.org/10.1063/5.0007045

 Schuett, Ole; Messmer, Peter; Hutter, Juerg; VandeVondele, Joost. 
 Electronic Structure Calculations on Graphics Processing Units, John
 Wiley & Sons, Ltd, 173-190 (2016). 
 GPU-Accelerated Sparse Matrix-Matrix Multiplication for
 Linear Scaling Density Functional Theory.
 https://doi.org/10.1002/9781118670712.ch8

 Heinecke, A; Henry, G; Hutchinson, M; Pabst, H. 
 Proceedings of Intl. Supercomputing Conference, 981-991 (2016). 
 LIBXSMM: Accelerating Small Matrix Multiplications
 by Runtime Code Generation.
 https://doi.org/10.1109/SC.2016.83

 Borstnik, U; VandeVondele, J; Weber, V; Hutter, J. 
 PARALLEL COMPUTING, 40 (5-6), 47-58 (2014). 
 Sparse matrix multiplication: The distributed block-compressed sparse
 row library.
 https://doi.org/10.1016/j.parco.2014.03.012

 Hutter, J; Iannuzzi, M; Schiffmann, F; VandeVondele, J. 
 WIREs Comput Mol Sci., 4 (1), 15-25 (2014). 
 CP2K: atomistic simulations of condensed matter systems.
 https://doi.org/10.1002/wcms.1159

 Marek, A; Blum, V; Johanni, R; Havu, V; Lang, B; Auckenthaler, T;
 Heinecke, A; Bungartz, H; Lederer, H. 
 Journal of Physics: Condensed Matter, 26 (21), (2014). 
 The ELPA library: scalable parallel eigenvalue solutions for
 electronic structure
 theory and computational science.
 https://doi.org/10.1088/0953-8984/26/21/213201

 VandeVondele, J; Hutter, J. 
 JOURNAL OF CHEMICAL PHYSICS, 127 (11), 114105 (2007). 
 Gaussian basis sets for accurate calculations on molecular systems in
 gas and condensed phases.
 https://doi.org/10.1063/1.2770708

 Kuhne, TD; Krack, M; Mohamed, FR; Parrinello, M. 
 PHYSICAL REVIEW LETTERS, 98 (6), 066401 (2007). 
 Efficient and accurate Car-Parrinello-like approach to
 Born-Oppenheimer molecular dynamics.
 https://doi.org/10.1103/PhysRevLett.98.066401

 Laino, T; Mohamed, F; Laio, A; Parrinello, M. 
 JOURNAL OF CHEMICAL THEORY AND COMPUTATION, 2 (5), 1370-1378 (2006). 
 An efficient linear-scaling electrostatic coupling for treating
 periodic boundary conditions in QM/MM simulations.
 https://doi.org/10.1021/ct6001169

 Laino, T; Mohamed, F; Laio, A; Parrinello, M. 
 JOURNAL OF CHEMICAL THEORY AND COMPUTATION, 1 (6), 1176-1184 (2005). 
 An efficient real space multigrid QM/MM electrostatic coupling.
 https://doi.org/10.1021/ct050123f

 Krack, M. 
 THEORETICAL CHEMISTRY ACCOUNTS, 114 (1-3), 145-152 (2005). 
 Pseudopotentials for H to Kr optimized for gradient-corrected
 exchange-correlation functionals.
 https://doi.org/10.1007/s00214-005-0655-y

 VandeVondele, J; Krack, M; Mohamed, F; Parrinello, M; Chassaing, T;
 Hutter, J. COMPUTER PHYSICS COMMUNICATIONS, 167 (2), 103-128 (2005). 
 QUICKSTEP: Fast and accurate density functional calculations using a
 mixed Gaussian and plane waves approach.
 https://doi.org/10.1016/j.cpc.2004.12.014

 Frigo, M; Johnson, SG. 
 PROCEEDINGS OF THE IEEE, 93 (2), 216-231 (2005). 
 The design and implementation of FFTW3.
 https://doi.org/10.1109/JPROC.2004.840301

 Kolafa, J. 
 JOURNAL OF COMPUTATIONAL CHEMISTRY, 25 (3), 335-342 (2004). 
 Time-reversible always stable predictor-corrector method for molecular dynamics of polarizable molecules.
 https://doi.org/10.1002/jcc.10385

 VandeVondele, J; Hutter, J. 
 JOURNAL OF CHEMICAL PHYSICS, 118 (10), 4365-4369 (2003). 
 An efficient orbital transformation method for electronic structure
 calculations.
 https://doi.org/10.1063/1.1543154

 Hartwigsen, C; Goedecker, S; Hutter, J. 
 PHYSICAL REVIEW B, 58 (7), 3641-3662 (1998). 
 Relativistic separable dual-space Gaussian pseudopotentials from H to Rn.
 https://doi.org/10.1103/PhysRevB.58.3641

 Lippert, G; Hutter, J; Parrinello, M. 
 MOLECULAR PHYSICS, 92 (3), 477-487 (1997). 
 A hybrid Gaussian and plane wave density functional scheme.
 https://doi.org/10.1080/002689797170220

 Goedecker, S; Teter, M; Hutter, J. 
 PHYSICAL REVIEW B, 54 (3), 1703-1710 (1996). 
 Separable dual-space Gaussian pseudopotentials.
 https://doi.org/10.1103/PhysRevB.54.1703

 ESSMANN, U; PERERA, L; BERKOWITZ, ML; DARDEN, T; LEE, H; PEDERSEN, LG. 
 JOURNAL OF CHEMICAL PHYSICS, 103 (19), 8577-8593 (1995). 
 A SMOOTH PARTICLE MESH EWALD METHOD.
 https://doi.org/10.1063/1.470117

 BLOCHL, PE. 
 JOURNAL OF CHEMICAL PHYSICS, 103 (17), 7422-7428 (1995). 
 ELECTROSTATIC DECOUPLING OF PERIODIC IMAGES OF PLANE-WAVE-EXPANDED
 DENSITIES AND DERIVED ATOMIC POINT CHARGES.
 https://doi.org/10.1063/1.470314

 BECKE, AD. PHYSICAL REVIEW A, 38 (6), 3098-3100 (1988). 
 DENSITY-FUNCTIONAL EXCHANGE-ENERGY APPROXIMATION WITH CORRECT
 ASYMPTOTIC-BEHAVIOR.
 https://doi.org/10.1103/PhysRevA.38.3098

 LEE, CT; YANG, WT; PARR, RG. 
 PHYSICAL REVIEW B, 37 (2), 785-789 (1988). 
 DEVELOPMENT OF THE COLLE-SALVETTI CORRELATION-ENERGY FORMULA INTO A
 FUNCTIONAL OF THE ELECTRON-DENSITY.
 https://doi.org/10.1103/PhysRevB.37.785


 -------------------------------------------------------------------------------
 -                                                                             -
 -                                T I M I N G                                  -
 -                                                                             -
 -------------------------------------------------------------------------------
 SUBROUTINE                       CALLS  ASD         SELF TIME        TOTAL TIME
                                MAXIMUM       AVERAGE  MAXIMUM  AVERAGE  MAXIMUM
 CP2K                                 1  1.0    0.264    0.298  624.600  624.602
 qs_mol_dyn_low                       1  2.0    0.016    0.024  562.492  563.826
 velocity_verlet                      6  3.0    0.027    0.031  389.366  389.535
 qs_forces                            7  3.9    0.001    0.001  310.799  310.805
 qs_energies                          7  4.9    0.000    0.000  300.139  300.148
 scf_env_do_scf                       7  5.9    0.001    0.001  280.832  280.832
 scf_env_do_scf_inner_loop          264  6.6    0.005    0.014  266.021  266.057
 rebuild_ks_matrix                  271  8.5    0.001    0.001  195.495  196.162
 qs_ks_build_kohn_sham_matrix       271  9.5    0.034    0.037  195.494  196.161
 qs_ks_update_qs_env                271  7.6    0.002    0.003  187.076  187.727
 qmmm_el_coupling                     7  3.9    0.000    0.000  161.297  161.312
 qmmm_elec_with_gaussian              7  4.9    0.019    0.022  161.294  161.309
 qmmm_elec_with_gaussian_low          7  5.9    0.000    0.000  138.246  158.653
 pw_transfer                       5497 12.2    0.359    0.392  127.747  129.764
 fft_wrap_pw1pw2                   4649 13.2    0.046    0.049  126.003  127.880
 fft_wrap_pw1pw2_150               2995 14.4    0.015    0.016  119.518  121.224
 qmmm_elec_gaussian_low_G             7  6.9  110.643  120.982  110.643  120.982
 qs_vxc_create                      271 10.5    0.013    0.022   95.055   95.132
 xc_vxc_pw_create                   271 11.5    2.850    2.999   95.042   95.128
 pw_cuda_c1dr3d_3d_ps              2467 15.8    0.043    0.051   68.860   71.925
 qmmm_forces                          7  3.9    0.028    0.031   62.511   62.515
 qmmm_forces_with_gaussian            7  4.9    0.038    0.050   50.984   61.457
 qmmm_env_create                      1  2.0    7.341    7.473   60.390   60.393
 qmmm_force_with_gaussian_low         7  5.9    0.000    0.000   48.751   59.223
 pw_cuda_r3dc1d_3d_ps              2182 14.6    0.041    0.044   57.077   58.653
 dbcsr_multiply_generic            5531 12.7    0.234    0.244   49.269   51.747
 fist_init                            1  3.0    0.002    0.005   47.872   47.873
 qs_rho_update_rho                  271  7.6    0.001    0.001   45.490   46.482
 calculate_rho_elec                 271  8.6    2.053    2.061   45.488   46.481
 xc_rho_set_and_dset_create         271 12.5    2.692    2.844   44.863   45.541
 sum_up_and_integrate               271 10.5    0.776    0.829   43.405   43.529
 multiply_cannon                   5531 13.7    0.924    0.960   36.193   43.153
 integrate_v_rspace                 271 11.5    0.007    0.008   42.628   42.789
 qs_scf_new_mos                     264  7.6    0.002    0.002   40.135   40.878
 qs_scf_loop_do_ot                  264  8.6    0.002    0.002   40.134   40.877
 multiply_cannon_loop              5531 14.7    0.615    0.660   33.476   40.489
 qmmm_elec_gaussian_low_R             7  6.9    0.000    0.000   27.603   40.082
 qmmm_elec_with_gaussian_LG           7  7.9   27.603   40.082   27.603   40.082
 qmmm_forces_gaussian_low_R           7  6.9    0.000    0.000   31.811   39.876
 qmmm_forces_with_gaussian_LG         7  7.9   31.810   39.876   31.810   39.876
 mp_alltoall_z22v                  4649 17.2   35.723   39.755   35.723   39.755
 x_to_yz                           2467 16.8   17.107   20.905   35.842   38.973
 qs_ks_ddapc                        271 10.5    0.004    0.004   37.055   37.895
 ot_scf_mini                        264  9.6    0.005    0.006   36.663   37.059
 density_rs2pw                      271  9.6    0.011    0.011   34.751   35.711
 multiply_cannon_multrec          22124 15.7    7.229   11.376   21.999   33.479
 mp_sync                            163 13.8   21.378   31.395   21.378   31.395
 force_field_control                  1  4.0    0.000    0.002   28.676   29.627
 yz_to_x                           2182 15.6   10.052   12.266   27.040   28.669
 rdparm_amber_8                       2  6.5   21.159   25.055   26.512   27.658
 cp_ddapc_apply_CD                  271 11.5    0.035    0.414   25.978   25.978
 ot_mini                            264 10.6    0.001    0.002   25.460   25.896
 potential_pw2rs                    271 12.5    0.088    0.097   24.468   24.514
 fist_calc_energy_force               7  3.9    0.061    0.075   23.663   23.694
 dbcsr_mm_accdrv_process          68244 16.3   13.630   20.751   14.310   21.923
 mp_sum_d                          9803 11.1   15.122   21.401   15.122   21.401
 rs_pw_transfer                    2210 11.9    0.029    0.031   20.237   21.186
 pw_cuda_sf                        2467 16.8   19.565   20.978   19.565   20.978
 mp_sum_dm                          908  5.1   14.118   19.548   14.118   19.548
 qmmm_forces_gaussian_low_G           7  6.9   16.941   19.439   16.941   19.439
 pw_cuda_fg                        2182 15.6   18.410   19.248   18.410   19.248
 force_nonbond                        7  4.9   12.099   18.714   12.099   18.714
 topology_control                     1  4.0    0.000    0.001   17.687   18.225
 mp_waitall_1                    285126 16.7   11.853   18.151   11.853   18.151
 grid_integrate_task_list           271 12.5   13.954   17.677   13.954   17.677
 pw_integral_ab                    3707  8.2   12.988   13.187   16.000   16.736
 qs_ot_get_derivative               264 11.6    0.002    0.003   15.311   15.695
 force_field_pack                     1  5.0    0.016    0.017   15.065   15.416
 pw_cuda_ffc                       2467 16.8   13.371   14.975   13.371   14.975
 init_scf_loop                        7  6.9    0.000    0.000   14.766   14.767
 connectivity_control                 2  4.0    0.000    0.001   13.726   14.263
 read_force_field_amber               1  5.0    0.004    0.005   13.539   14.143
 read_connectivity_amber              1  6.0    0.000    0.000   12.978   13.520
 -------------------------------------------------------------------------------

 The number of warnings for this run is : 0
 
 -------------------------------------------------------------------------------
  **** **** ******  **  PROGRAM ENDED AT                 2021-07-26 14:21:07.175
 ***** ** ***  *** **   PROGRAM RAN ON                                    r2i7n1
 **    ****   ******    PROGRAM RAN BY                                    hollyj
 ***** **    ** ** **   PROGRAM PROCESS ID                                 19922
  **** **  *******  **  PROGRAM STOPPED IN /lustre/home/w68/hollyj/CP2K/Cirrus/G
                                           PU/cp2kMD/ClC-253-BLYP/6STEPS/4NODES/
                                           36CPN/10THREADS
