 DBCSR| CPU Multiplication driver                                           XSMM
 DBCSR| Multrec recursion limit                                              512
 DBCSR| Multiplication stack size                                          30000
 DBCSR| Maximum elements for images                                    UNLIMITED
 DBCSR| Multiplicative factor virtual images                                   1
 DBCSR| Use multiplication densification                                       F
 DBCSR| Multiplication size stacks                                             3
 DBCSR| Use memory pool for CPU allocation                                     F
 DBCSR| Number of 3D layers                                               SINGLE
 DBCSR| Use MPI memory allocation                                              F
 DBCSR| Use RMA algorithm                                                      F
 DBCSR| Use Communication thread                                               T
 DBCSR| Communication thread load                                             53
 DBCSR| MPI: My node id                                                        0
 DBCSR| MPI: Number of nodes                                                  32
 DBCSR| OMP: Current number of threads                                        10
 DBCSR| OMP: Max number of threads                                            10
 DBCSR| ACC: Number of devices/node                                            4
 DBCSR| ACC: Number of priority stack-buffers                                 40
 DBCSR| ACC: Number of posterior stack-buffers                                80
 DBCSR| ACC: Number of priority streams                                        4
 DBCSR| ACC: Number of posterior streams                                       4
 DBCSR| ACC: Avoid driver after busy                                           F
 DBCSR| ACC: Process inhomogeneous stacks                                      T
 DBCSR| ACC: Min. flop for processing                                          0
 DBCSR| ACC: Min. flop for sorting                                          4000
 DBCSR| ACC: Number of binning bins                                         4096
 DBCSR| ACC: Size of binning bins                                             16
 DBCSR| Split modifier for TAS multiplication algorithm                  1.0E+00


  **** **** ******  **  PROGRAM STARTED AT               2021-07-26 14:06:42.653
 ***** ** ***  *** **   PROGRAM STARTED ON                                r2i4n0
 **    ****   ******    PROGRAM STARTED BY                                hollyj
 ***** **    ** ** **   PROGRAM PROCESS ID                                 66166
  **** **  *******  **  PROGRAM STARTED IN /lustre/home/w68/hollyj/CP2K/Cirrus/G
                                           PU/cp2kMD/ClC-253-BLYP/1STEPS/8NODES/
                                           36CPN/10THREADS

 CP2K| version string:                                          CP2K version 8.2
 CP2K| source code revision number:                                  git:310b7ab
 CP2K| cp2kflags: omp libint fftw3 libxc elpa parallel mpi3 scalapack cosma pw_c
 CP2K|            uda xsmm cuda_profiling dbcsr_acc spglib mkl grid_cuda
 CP2K| is freely available from                            https://www.cp2k.org/
 CP2K| Program compiled at                          Thu Jul 22 18:07:58 BST 2021
 CP2K| Program compiled on                                                r2i5n7
 CP2K| Program compiled for                                           Cirrus-gcc
 CP2K| Data directory path       /lustre/home/w68/hollyj/CP2K/v8.2/cp2k-8.2/data
 CP2K| Input file name                                          ClC-253-cp2k.inp

 GLOBAL| Force Environment number                                              1
 GLOBAL| Basis set file name                                        BASIS_MOLOPT
 GLOBAL| Potential file name                                           POTENTIAL
 GLOBAL| MM Potential file name                                     MM_POTENTIAL
 GLOBAL| Coordinate file name                                            ClC.pdb
 GLOBAL| Method name                                                        CP2K
 GLOBAL| Project name                                               ClC-253-BLYP
 GLOBAL| Run type                                                             MD
 GLOBAL| FFT library                                                       FFTW3
 GLOBAL| Diagonalization library                                            ELPA
 GLOBAL| Minimum number of eigenvectors for ELPA usage                        16
 GLOBAL| Orthonormality check for eigenvectors                          DISABLED
 GLOBAL| Matrix multiplication library                                     COSMA
 GLOBAL| All-to-all communication in single precision                          F
 GLOBAL| FFTs using library dependent lengths                                  F
 GLOBAL| Grid backend                                                       AUTO
 GLOBAL| Global print level                                                  LOW
 GLOBAL| MPI I/O enabled                                                       T
 GLOBAL| Total number of message passing processes                            32
 GLOBAL| Number of threads for this process                                   10
 GLOBAL| This output is from process                                           0
 GLOBAL| CPU model name                 Intel(R) Xeon(R) Gold 6248 CPU @ 2.50GHz
 GLOBAL| CPUID                                                              1003

 MEMORY| system memory details [Kb]
 MEMORY|                        rank 0           min           max       average
 MEMORY| MemTotal            394535408     394535408     394535408     394535408
 MEMORY| MemFree             387273304     387221424     387727800     387474616
 MEMORY| Buffers                     0             0             0             0
 MEMORY| Cached                1038152        809416       1038152        902791
 MEMORY| Slab                   957812        837168        957812        905159
 MEMORY| SReclaimable           171612        152304        171612        165334
 MEMORY| MemLikelyFree       388483068     388302872     388695028     388542742



                      ************* ******** ***********   
                     ************* **********************  
                     ****     **** ****      ***********   
                     ******** ****  *******     ****       
                     *******  ****   *******   ****        
                     ****     ****       ****  ****        
                     ****     **** **********  ****        
                      ****     **** ********    ****       
                     FRONTIERS IN SIMULATION TECHNOLOGY    
                                                           
                        C.J. Mundy, S. Balasubramanian,    
                     Ken Bagchi, J. Hutter, Ari Seitsonen  
                      IFW Kuo, T. Laino, J. VandeVondele   
                                 Version 1.0               

                                                           


 EWALD| Summation is done by:                                               SPME
 EWALD| Alpha parameter [       ANGSTROM^-1]                              0.4000
 EWALD| Real Space Cutoff [          ANGSTROM]                            8.4348
 EWALD| G-space max. Miller index                         80        80        80
 EWALD| Spline interpolation order                                             6

 FORCEFIELD| WARNING: A non Critical ForceField parameter is missing! CP2K GOES!
 FORCEFIELD| Non critical parameters are:Urey-Bradley,Torsions,Impropers, Opbends and 1-4
 FORCEFIELD| All missing parameters will not contribute to the potential energy!
 FORCEFIELD| Activate the print key FF_INFO to have a list of missing parameters

 CHARGE_INFO| Total Charge of the Classical System:                     2.369895

 SPLINE_INFO| Generating 85491 splines for NONBONDED14 interactions 
              Due to 413 different atomic kinds
  ...8549  ...17098  ...25647  ...34196  ...42745  ...51294  ...59843  ...68392  ...76941  ...85490
 SPLINE_INFO| Number of unique splines computed:            254
 SPLINE_INFO| Done

 SPLINE_INFO| Generating 85491 splines for NONBONDED interactions 
              Due to 413 different atomic kinds
  ...8549  ...17098  ...25647  ...34196  ...42745  ...51294  ...59843  ...68392  ...76941  ...85490
 SPLINE_INFO| Number of unique splines computed:            254
 SPLINE_INFO| Done

 *******************************************************************************
 *******************************************************************************
 **                                                                           **
 **     #####                         ##              ##                      **
 **    ##   ##            ##          ##              ##                      **
 **   ##     ##                       ##            ######                    **
 **   ##     ##  ##   ##  ##   #####  ##  ##   ####   ##    #####    #####    **
 **   ##     ##  ##   ##  ##  ##      ## ##   ##      ##   ##   ##  ##   ##   **
 **   ##  ## ##  ##   ##  ##  ##      ####     ###    ##   ######   ######    **
 **    ##  ###   ##   ##  ##  ##      ## ##      ##   ##   ##       ##        **
 **     #######   #####   ##   #####  ##  ##  ####    ##    #####   ##        **
 **           ##                                                    ##        **
 **                                                                           **
 **                                                ... make the atoms dance   **
 **                                                                           **
 **            Copyright (C) by CP2K developers group (2000-2021)             **
 **                      J. Chem. Phys. 152, 194103 (2020)                    **
 **                                                                           **
 *******************************************************************************


 TOTAL NUMBERS AND MAXIMUM NUMBERS

  Total number of            - Atomic kinds:                                   6
                             - Atoms:                                        253
                             - Shell sets:                                   253
                             - Shells:                                       991
                             - Primitive Cartesian functions:               1770
                             - Cartesian basis functions:                   2309
                             - Spherical basis functions:                   2193

  Maximum angular momentum of- Orbital basis functions:                        2
                             - Local part of the GTH pseudopotential:          2
                             - Non-local part of the GTH pseudopotential:      2


 SCF PARAMETERS         Density guess:                                   RESTART
                        --------------------------------------------------------
                        max_scf:                                             300
                        max_scf_history:                                       0
                        max_diis:                                              4
                        --------------------------------------------------------
                        eps_scf:                                        1.00E-06
                        eps_scf_history:                                0.00E+00
                        eps_diis:                                       1.00E-01
                        eps_eigval:                                     1.00E-05
                        --------------------------------------------------------
                        level_shift [a.u.]:                                 0.00
                        --------------------------------------------------------
                        No outer SCF

 *******************************************************************************
 *******************************************************************************
 **                                                                           **
 **             #######  ##     ## ##     ## ##     ##                        **
 **            ##     ## ###   ### ###   ### ###   ###                        **
 **            ##     ## #### #### #### #### #### ####                        **
 **            ##     ## ## ### ## ## ### ## ## ### ##                        **
 **            ##  ## ## ##     ## ##     ## ##     ##                        **
 **            ##    ##  ##     ## ##     ## ##     ##  T.Laino and F.Mohamed **
 **             ##### ## ##     ## ##     ## ##     ##  2005 - 2015           **
 **                                                                           **
 **                                                     Calculation Started.. **
 *******************************************************************************
 *******************************************************************************

 MD_PAR| Molecular dynamics protocol (MD input parameters)
 MD_PAR| Ensemble type                                                       NVE
 MD_PAR| Number of time steps                                                  1
 MD_PAR| Time step [fs]                                                 1.000000
 MD_PAR| Temperature [K]                                              300.000000
 MD_PAR| Temperature tolerance [K]                                      0.000000
 MD_PAR| Print MD information every                                    1 step(s)
 MD_PAR| File type   Print frequency [steps]                          File names
 MD_PAR| Coordinates          1                           ClC-253-BLYP-pos-1.xyz
 MD_PAR| Velocities           1                           ClC-253-BLYP-vel-1.xyz
 MD_PAR| Energies             1                              ClC-253-BLYP-1.ener
 MD_PAR| Dump                20                           ClC-253-BLYP-1.restart

 ROT| Rotational analysis information
 ROT| Principal axes and moments of inertia [a.u.]
 ROT|                           1                   2                   3
 ROT| Eigenvalues      6.49908278768+119   9.69266118148+120   9.76757630270+120
 ROT|      x              0.966767624107     -0.244635852463     -0.074254027960
 ROT|      y             -0.214972405609     -0.620674029844     -0.754022952902
 ROT|      z             -0.138373501094     -0.744927545716      0.652637514880
 ROT| Number of rotovibrational vectors                                        6

 DOF| Calculation of degrees of freedom
 DOF| Number of atoms                                                     150925
 DOF| Number of intramolecular constraints                                     0
 DOF| Number of intermolecular constraints                                     0
 DOF| Invariants (translations + rotations)                                    3
 DOF| Degrees of freedom                                                  452772

 DOF| Restraints information
 DOF| Number of intramolecular restraints                                      0
 DOF| Number of intermolecular restraints                                      0

 MD_VEL| Velocities initialization
 MD_VEL| Initial temperature [K]                                      300.000000
 MD_VEL| COM velocity            -0.0000000000     0.0000000000     0.0000000000

  Translating the system in order to center the QM fragment in the QM box.

 Number of electrons:                                                        654
 Number of occupied orbitals:                                                327
 Number of molecular orbitals:                                               327

 Number of orbital functions:                                               2193
 Number of independent orbital functions:                                   2193

 Extrapolation method: initial_guess


 SCF WAVEFUNCTION OPTIMIZATION

  ----------------------------------- OT ---------------------------------------
  Minimizer      : DIIS                : direct inversion
                                         in the iterative subspace
                                         using   7 DIIS vectors
                                         safer DIIS on
  Preconditioner : FULL_ALL            : diagonalization, state selective
  Precond_solver : DEFAULT
  stepsize       :    0.15000000                  energy_gap     :    0.08000000
  eps_taylor     :   0.10000E-15                  max_taylor     :             4
  ----------------------------------- OT ---------------------------------------

  Step     Update method      Time    Convergence         Total energy    Change
  ------------------------------------------------------------------------------
  Decoupling Energy:                                               0.0674872996
  Recoupling Energy:                                              -0.0068222234
     1 OT DIIS     0.15E+00    7.2     0.00001627     -1098.7913677411 -1.10E+03
  Decoupling Energy:                                               0.0674861058
  Recoupling Energy:                                              -0.0068221797
     2 OT DIIS     0.15E+00    0.7     0.00000900     -1098.7913888938 -2.12E-05
  Decoupling Energy:                                               0.0674950603
  Recoupling Energy:                                              -0.0068223087
     3 OT DIIS     0.15E+00    0.7     0.00001460     -1098.7913964549 -7.56E-06
  Decoupling Energy:                                               0.0674896965
  Recoupling Energy:                                              -0.0068222498
     4 OT DIIS     0.15E+00    0.7     0.00000626     -1098.7913998880 -3.43E-06
  Decoupling Energy:                                               0.0674872278
  Recoupling Energy:                                              -0.0068222035
     5 OT DIIS     0.15E+00    0.7     0.00000578     -1098.7914020837 -2.20E-06
  Decoupling Energy:                                               0.0674888303
  Recoupling Energy:                                              -0.0068221999
     6 OT DIIS     0.15E+00    0.7     0.00000580     -1098.7914084634 -6.38E-06
  Decoupling Energy:                                               0.0674891663
  Recoupling Energy:                                              -0.0068222222
     7 OT DIIS     0.15E+00    0.7     0.00000561     -1098.7914167881 -8.32E-06
  Decoupling Energy:                                               0.0674892941
  Recoupling Energy:                                              -0.0068222412
     8 OT DIIS     0.15E+00    0.7     0.00000524     -1098.7914221585 -5.37E-06
  Decoupling Energy:                                               0.0674881907
  Recoupling Energy:                                              -0.0068221895
     9 OT DIIS     0.15E+00    0.7     0.00000516     -1098.7914280315 -5.87E-06
  Decoupling Energy:                                               0.0674891068
  Recoupling Energy:                                              -0.0068222186
    10 OT DIIS     0.15E+00    0.7     0.00000503     -1098.7914326439 -4.61E-06
  Decoupling Energy:                                               0.0674910255
  Recoupling Energy:                                              -0.0068222409
    11 OT DIIS     0.15E+00    0.7     0.00000505     -1098.7914451574 -1.25E-05
  Decoupling Energy:                                               0.0674893445
  Recoupling Energy:                                              -0.0068222092
    12 OT DIIS     0.15E+00    0.7     0.00000544     -1098.7914511015 -5.94E-06
  Decoupling Energy:                                               0.0674886192
  Recoupling Energy:                                              -0.0068221746
    13 OT DIIS     0.15E+00    0.7     0.00000506     -1098.7914589353 -7.83E-06
  Decoupling Energy:                                               0.0674897272
  Recoupling Energy:                                              -0.0068221819
    14 OT DIIS     0.15E+00    0.7     0.00000482     -1098.7914634348 -4.50E-06
  Decoupling Energy:                                               0.0674896707
  Recoupling Energy:                                              -0.0068222125
    15 OT DIIS     0.15E+00    0.7     0.00000471     -1098.7914698145 -6.38E-06
  Decoupling Energy:                                               0.0674902115
  Recoupling Energy:                                              -0.0068221925
    16 OT DIIS     0.15E+00    0.7     0.00000482     -1098.7914781062 -8.29E-06
  Decoupling Energy:                                               0.0674901472
  Recoupling Energy:                                              -0.0068221797
    17 OT DIIS     0.15E+00    0.7     0.00000498     -1098.7914886289 -1.05E-05
  Decoupling Energy:                                               0.0674880435
  Recoupling Energy:                                              -0.0068221048
    18 OT DIIS     0.15E+00    0.7     0.00000526     -1098.7915022664 -1.36E-05
  Decoupling Energy:                                               0.0674897586
  Recoupling Energy:                                              -0.0068221785
    19 OT DIIS     0.15E+00    0.7     0.00000471     -1098.7915055207 -3.25E-06
  Decoupling Energy:                                               0.0674872475
  Recoupling Energy:                                              -0.0068220953
    20 OT DIIS     0.15E+00    0.7     0.00000508     -1098.7915154560 -9.94E-06
  Decoupling Energy:                                               0.0674906167
  Recoupling Energy:                                              -0.0068222473
    21 OT DIIS     0.15E+00    0.7     0.00000457     -1098.7915235632 -8.11E-06
  Decoupling Energy:                                               0.0674882094
  Recoupling Energy:                                              -0.0068221454
    22 OT DIIS     0.15E+00    0.7     0.00000473     -1098.7915323917 -8.83E-06
  Decoupling Energy:                                               0.0674847826
  Recoupling Energy:                                              -0.0068220505
    23 OT DIIS     0.15E+00    0.7     0.00000542     -1098.7915548569 -2.25E-05
  Decoupling Energy:                                               0.0674699959
  Recoupling Energy:                                              -0.0068215480
    24 OT DIIS     0.15E+00    0.7     0.00001418     -1098.7915841560 -2.93E-05
  Decoupling Energy:                                               0.0674739933
  Recoupling Energy:                                              -0.0068217824
    25 OT SD       0.15E+00    0.7     0.00000724     -1098.7915868327 -2.68E-06
  Decoupling Energy:                                               0.0674836505
  Recoupling Energy:                                              -0.0068222788
    26 OT SD       0.15E+00    0.7     0.00001712     -1098.7915858285  1.00E-06
  Decoupling Energy:                                               0.0674808642
  Recoupling Energy:                                              -0.0068216362
    27 OT DIIS     0.15E+00    0.7     0.00005727     -1098.7915520468  3.38E-05
  Decoupling Energy:                                               0.0674947418
  Recoupling Energy:                                              -0.0068224728
    28 OT DIIS     0.15E+00    0.7     0.00000821     -1098.7915724252 -2.04E-05
  Decoupling Energy:                                               0.0674768507
  Recoupling Energy:                                              -0.0068218846
    29 OT DIIS     0.15E+00    0.7     0.00000539     -1098.7915985535 -2.61E-05
  Decoupling Energy:                                               0.0674835214
  Recoupling Energy:                                              -0.0068221007
    30 OT SD       0.15E+00    0.7     0.00000463     -1098.7916040725 -5.52E-06
  Decoupling Energy:                                               0.0674810456
  Recoupling Energy:                                              -0.0068220181
    31 OT DIIS     0.15E+00    0.7     0.00000894     -1098.7916049463 -8.74E-07
  Decoupling Energy:                                               0.0674855074
  Recoupling Energy:                                              -0.0068221340
    32 OT SD       0.15E+00    0.7     0.00000392     -1098.7916135978 -8.65E-06
  Decoupling Energy:                                               0.0674890623
  Recoupling Energy:                                              -0.0068222227
    33 OT DIIS     0.15E+00    0.7     0.00000540     -1098.7916148951 -1.30E-06
  Decoupling Energy:                                               0.0674876840
  Recoupling Energy:                                              -0.0068221546
    34 OT DIIS     0.15E+00    0.7     0.00000373     -1098.7916208254 -5.93E-06
  Decoupling Energy:                                               0.0674877213
  Recoupling Energy:                                              -0.0068221785
    35 OT DIIS     0.15E+00    0.7     0.00000370     -1098.7916231370 -2.31E-06
  Decoupling Energy:                                               0.0674875505
  Recoupling Energy:                                              -0.0068221509
    36 OT DIIS     0.15E+00    0.7     0.00000400     -1098.7916341155 -1.10E-05
  Decoupling Energy:                                               0.0674875255
  Recoupling Energy:                                              -0.0068221469
    37 OT DIIS     0.15E+00    0.7     0.00000377     -1098.7916392175 -5.10E-06
  Decoupling Energy:                                               0.0674846559
  Recoupling Energy:                                              -0.0068220695
    38 OT SD       0.15E+00    0.7     0.00000380     -1098.7916448029 -5.59E-06
  Decoupling Energy:                                               0.0674855381
  Recoupling Energy:                                              -0.0068221506
    39 OT DIIS     0.15E+00    0.7     0.00000675     -1098.7916456623 -8.59E-07
  Decoupling Energy:                                               0.0674807381
  Recoupling Energy:                                              -0.0068219768
    40 OT SD       0.15E+00    0.7     0.00000454     -1098.7916593298 -1.37E-05
  Decoupling Energy:                                               0.0674769458
  Recoupling Energy:                                              -0.0068219670
    41 OT SD       0.15E+00    0.7     0.00000937     -1098.7916596928 -3.63E-07
  Decoupling Energy:                                               0.0674895012
  Recoupling Energy:                                              -0.0068221138
    42 OT DIIS     0.15E+00    0.7     0.00002997     -1098.7916510973  8.60E-06
  Decoupling Energy:                                               0.0674782357
  Recoupling Energy:                                              -0.0068219392
    43 OT DIIS     0.15E+00    0.7     0.00000365     -1098.7916657044 -1.46E-05
  Decoupling Energy:                                               0.0674784760
  Recoupling Energy:                                              -0.0068219407
    44 OT DIIS     0.15E+00    0.7     0.00000337     -1098.7916710195 -5.32E-06
  Decoupling Energy:                                               0.0674762165
  Recoupling Energy:                                              -0.0068219283
    45 OT DIIS     0.15E+00    0.7     0.00000362     -1098.7916812888 -1.03E-05
  Decoupling Energy:                                               0.0674769520
  Recoupling Energy:                                              -0.0068219474
    46 OT DIIS     0.15E+00    0.7     0.00000327     -1098.7916849593 -3.67E-06
  Decoupling Energy:                                               0.0674741791
  Recoupling Energy:                                              -0.0068218721
    47 OT DIIS     0.15E+00    0.7     0.00000448     -1098.7916952857 -1.03E-05
  Decoupling Energy:                                               0.0674755255
  Recoupling Energy:                                              -0.0068219163
    48 OT DIIS     0.15E+00    0.7     0.00000311     -1098.7916980958 -2.81E-06
  Decoupling Energy:                                               0.0674742303
  Recoupling Energy:                                              -0.0068219045
    49 OT DIIS     0.15E+00    0.7     0.00000553     -1098.7917083174 -1.02E-05
  Decoupling Energy:                                               0.0674775578
  Recoupling Energy:                                              -0.0068219922
    50 OT DIIS     0.15E+00    0.7     0.00000379     -1098.7917138545 -5.54E-06
  Decoupling Energy:                                               0.0674794172
  Recoupling Energy:                                              -0.0068220209
    51 OT DIIS     0.15E+00    0.7     0.00000292     -1098.7917207756 -6.92E-06
  Decoupling Energy:                                               0.0674785961
  Recoupling Energy:                                              -0.0068219592
    52 OT DIIS     0.15E+00    0.7     0.00000418     -1098.7917246134 -3.84E-06
  Decoupling Energy:                                               0.0674806857
  Recoupling Energy:                                              -0.0068220148
    53 OT DIIS     0.15E+00    0.7     0.00000296     -1098.7917268985 -2.29E-06
  Decoupling Energy:                                               0.0674828509
  Recoupling Energy:                                              -0.0068220703
    54 OT DIIS     0.15E+00    0.7     0.00000536     -1098.7917366481 -9.75E-06
  Decoupling Energy:                                               0.0674845459
  Recoupling Energy:                                              -0.0068221027
    55 OT DIIS     0.15E+00    0.7     0.00000312     -1098.7917368526 -2.04E-07
  Decoupling Energy:                                               0.0674881575
  Recoupling Energy:                                              -0.0068221628
    56 OT SD       0.15E+00    0.7     0.00000634     -1098.7917470925 -1.02E-05
  Decoupling Energy:                                               0.0674739784
  Recoupling Energy:                                              -0.0068218353
    57 OT SD       0.15E+00    0.7     0.00001492     -1098.7917455913  1.50E-06
  Decoupling Energy:                                               0.0675039580
  Recoupling Energy:                                              -0.0068225999
    58 OT DIIS     0.15E+00    0.7     0.00004736     -1098.7917175240  2.81E-05
  Decoupling Energy:                                               0.0674835366
  Recoupling Energy:                                              -0.0068220172
    59 OT DIIS     0.15E+00    0.7     0.00000335     -1098.7917459876 -2.85E-05
  Decoupling Energy:                                               0.0674899691
  Recoupling Energy:                                              -0.0068222439
    60 OT DIIS     0.15E+00    0.7     0.00000258     -1098.7917499342 -3.95E-06
  Decoupling Energy:                                               0.0674929378
  Recoupling Energy:                                              -0.0068223217
    61 OT DIIS     0.15E+00    0.7     0.00000395     -1098.7917557390 -5.80E-06
  Decoupling Energy:                                               0.0674936189
  Recoupling Energy:                                              -0.0068223074
    62 OT DIIS     0.15E+00    0.7     0.00000310     -1098.7917584014 -2.66E-06
  Decoupling Energy:                                               0.0674928214
  Recoupling Energy:                                              -0.0068222706
    63 OT SD       0.15E+00    0.7     0.00000252     -1098.7917598041 -1.40E-06
  Decoupling Energy:                                               0.0674896214
  Recoupling Energy:                                              -0.0068222093
    64 OT DIIS     0.15E+00    0.7     0.00000349     -1098.7917602537 -4.50E-07
  Decoupling Energy:                                               0.0674942061
  Recoupling Energy:                                              -0.0068223189
    65 OT DIIS     0.15E+00    0.7     0.00000280     -1098.7917666797 -6.43E-06
  Decoupling Energy:                                               0.0674936666
  Recoupling Energy:                                              -0.0068222776
    66 OT DIIS     0.15E+00    0.7     0.00000303     -1098.7917685154 -1.84E-06
  Decoupling Energy:                                               0.0674963082
  Recoupling Energy:                                              -0.0068223423
    67 OT DIIS     0.15E+00    0.7     0.00000323     -1098.7917735275 -5.01E-06
  Decoupling Energy:                                               0.0674995513
  Recoupling Energy:                                              -0.0068224255
    68 OT SD       0.15E+00    0.7     0.00000371     -1098.7917786258 -5.10E-06
  Decoupling Energy:                                               0.0674871454
  Recoupling Energy:                                              -0.0068220790
    69 OT SD       0.15E+00    0.7     0.00000772     -1098.7917784663  1.60E-07
  Decoupling Energy:                                               0.0675067720
  Recoupling Energy:                                              -0.0068226901
    70 OT DIIS     0.15E+00    0.7     0.00002225     -1098.7917732385  5.23E-06
  Decoupling Energy:                                               0.0674927587
  Recoupling Energy:                                              -0.0068222602
    71 OT DIIS     0.15E+00    0.7     0.00000226     -1098.7917801506 -6.91E-06
  Decoupling Energy:                                               0.0674966069
  Recoupling Energy:                                              -0.0068223555
    72 OT DIIS     0.15E+00    0.7     0.00000256     -1098.7917837938 -3.64E-06
  Decoupling Energy:                                               0.0674997871
  Recoupling Energy:                                              -0.0068224447
    73 OT DIIS     0.15E+00    0.8     0.00000330     -1098.7917896452 -5.85E-06
  Decoupling Energy:                                               0.0675095766
  Recoupling Energy:                                              -0.0068227147
    74 OT DIIS     0.15E+00    0.8     0.00000541     -1098.7917973566 -7.71E-06
  Decoupling Energy:                                               0.0675084227
  Recoupling Energy:                                              -0.0068226651
    75 OT SD       0.15E+00    0.7     0.00000467     -1098.7917993112 -1.95E-06
  Decoupling Energy:                                               0.0674911620
  Recoupling Energy:                                              -0.0068221561
    76 OT SD       0.15E+00    0.7     0.00000995     -1098.7917986300  6.81E-07
  Decoupling Energy:                                               0.0675159015
  Recoupling Energy:                                              -0.0068229846
    77 OT DIIS     0.15E+00    0.7     0.00002850     -1098.7917895913  9.04E-06
  Decoupling Energy:                                               0.0674877793
  Recoupling Energy:                                              -0.0068221437
    78 OT DIIS     0.15E+00    0.7     0.00000330     -1098.7917970925 -7.50E-06
  Decoupling Energy:                                               0.0675000136
  Recoupling Energy:                                              -0.0068224304
    79 OT DIIS     0.15E+00    0.7     0.00000254     -1098.7918009458 -3.85E-06
  Decoupling Energy:                                               0.0674983471
  Recoupling Energy:                                              -0.0068223888
    80 OT DIIS     0.15E+00    0.7     0.00000174     -1098.7918019734 -1.03E-06
  Decoupling Energy:                                               0.0674932311
  Recoupling Energy:                                              -0.0068222609
    81 OT DIIS     0.15E+00    0.7     0.00000154     -1098.7918022731 -3.00E-07
  Decoupling Energy:                                               0.0674931101
  Recoupling Energy:                                              -0.0068222502
    82 OT DIIS     0.15E+00    0.8     0.00000158     -1098.7918030822 -8.09E-07
  Decoupling Energy:                                               0.0674941927
  Recoupling Energy:                                              -0.0068222773
    83 OT DIIS     0.15E+00    0.7     0.00000151     -1098.7918033912 -3.09E-07
  Decoupling Energy:                                               0.0674935282
  Recoupling Energy:                                              -0.0068222462
    84 OT DIIS     0.15E+00    0.7     0.00000146     -1098.7918049087 -1.52E-06
  Decoupling Energy:                                               0.0674921683
  Recoupling Energy:                                              -0.0068222163
    85 OT DIIS     0.15E+00    0.7     0.00000148     -1098.7918052898 -3.81E-07
  Decoupling Energy:                                               0.0674927024
  Recoupling Energy:                                              -0.0068222117
    86 OT DIIS     0.15E+00    0.8     0.00000137     -1098.7918068001 -1.51E-06
  Decoupling Energy:                                               0.0674932281
  Recoupling Energy:                                              -0.0068222212
    87 OT DIIS     0.15E+00    0.7     0.00000137     -1098.7918081998 -1.40E-06
  Decoupling Energy:                                               0.0674932992
  Recoupling Energy:                                              -0.0068222109
    88 OT DIIS     0.15E+00    0.7     0.00000135     -1098.7918094057 -1.21E-06
  Decoupling Energy:                                               0.0674940491
  Recoupling Energy:                                              -0.0068222214
    89 OT DIIS     0.15E+00    0.7     0.00000132     -1098.7918106700 -1.26E-06
  Decoupling Energy:                                               0.0674950599
  Recoupling Energy:                                              -0.0068222481
    90 OT DIIS     0.15E+00    0.7     0.00000135     -1098.7918118254 -1.16E-06
  Decoupling Energy:                                               0.0674958211
  Recoupling Energy:                                              -0.0068222625
    91 OT DIIS     0.15E+00    0.7     0.00000132     -1098.7918127563 -9.31E-07
  Decoupling Energy:                                               0.0674958883
  Recoupling Energy:                                              -0.0068222612
    92 OT DIIS     0.15E+00    0.8     0.00000129     -1098.7918136719 -9.16E-07
  Decoupling Energy:                                               0.0674962655
  Recoupling Energy:                                              -0.0068222796
    93 OT DIIS     0.15E+00    0.7     0.00000142     -1098.7918146173 -9.45E-07
  Decoupling Energy:                                               0.0674997116
  Recoupling Energy:                                              -0.0068223473
    94 OT DIIS     0.15E+00    0.7     0.00000146     -1098.7918163429 -1.73E-06
  Decoupling Energy:                                               0.0675001508
  Recoupling Energy:                                              -0.0068223566
    95 OT DIIS     0.15E+00    0.7     0.00000139     -1098.7918170127 -6.70E-07
  Decoupling Energy:                                               0.0674986111
  Recoupling Energy:                                              -0.0068223210
    96 OT DIIS     0.15E+00    0.7     0.00000126     -1098.7918177199 -7.07E-07
  Decoupling Energy:                                               0.0675041928
  Recoupling Energy:                                              -0.0068224453
    97 OT DIIS     0.15E+00    0.7     0.00000172     -1098.7918202417 -2.52E-06
  Decoupling Energy:                                               0.0675024815
  Recoupling Energy:                                              -0.0068223929
    98 OT DIIS     0.15E+00    0.7     0.00000131     -1098.7918219727 -1.73E-06
  Decoupling Energy:                                               0.0675113671
  Recoupling Energy:                                              -0.0068225886
    99 OT DIIS     0.15E+00    0.7     0.00000251     -1098.7918252576 -3.28E-06
  Decoupling Energy:                                               0.0675135537
  Recoupling Energy:                                              -0.0068226239
   100 OT DIIS     0.15E+00    0.7     0.00000283     -1098.7918264391 -1.18E-06
  Decoupling Energy:                                               0.0675143134
  Recoupling Energy:                                              -0.0068226416
   101 OT SD       0.15E+00    0.8     0.00000279     -1098.7918269332 -4.94E-07
  Decoupling Energy:                                               0.0675020374
  Recoupling Energy:                                              -0.0068222631
   102 OT SD       0.15E+00    0.8     0.00000577     -1098.7918267190  2.14E-07
  Decoupling Energy:                                               0.0675171007
  Recoupling Energy:                                              -0.0068228888
   103 OT DIIS     0.15E+00    0.8     0.00001531     -1098.7918240408  2.68E-06
  Decoupling Energy:                                               0.0675040582
  Recoupling Energy:                                              -0.0068224044
   104 OT SD       0.15E+00    0.8     0.00000118     -1098.7918269256 -2.88E-06
  Decoupling Energy:                                               0.0675030608
  Recoupling Energy:                                              -0.0068223825
   105 OT DIIS     0.15E+00    0.8     0.00000181     -1098.7918270126 -8.70E-08
  Decoupling Energy:                                               0.0675029970
  Recoupling Energy:                                              -0.0068223816
   106 OT SD       0.15E+00    0.8     0.00000107     -1098.7918279547 -9.42E-07
  Decoupling Energy:                                               0.0675015985
  Recoupling Energy:                                              -0.0068223427
   107 OT DIIS     0.15E+00    0.8     0.00000151     -1098.7918280442 -8.95E-08
  Decoupling Energy:                                               0.0675000434
  Recoupling Energy:                                              -0.0068223112
   108 OT DIIS     0.15E+00    0.8     0.00000102     -1098.7918291187 -1.07E-06
  Decoupling Energy:                                               0.0675015553
  Recoupling Energy:                                              -0.0068223419
   109 OT SD       0.15E+00    0.8     0.00000113     -1098.7918306877 -1.57E-06
  Decoupling Energy:                                               0.0674985848
  Recoupling Energy:                                              -0.0068222509
   110 OT DIIS     0.15E+00    0.8     0.00000204     -1098.7918307374 -4.97E-08
  Decoupling Energy:                                               0.0675006972
  Recoupling Energy:                                              -0.0068223064
   111 OT DIIS     0.15E+00    0.8     0.00000101     -1098.7918321241 -1.39E-06
  Decoupling Energy:                                               0.0675031922
  Recoupling Energy:                                              -0.0068223503
   112 OT SD       0.15E+00    0.7     0.00000137     -1098.7918337114 -1.59E-06
  Decoupling Energy:                                               0.0674989206
  Recoupling Energy:                                              -0.0068222241
   113 OT SD       0.15E+00    0.7     0.00000278     -1098.7918337114  3.55E-11
  Decoupling Energy:                                               0.0675050384
  Recoupling Energy:                                              -0.0068224633
   114 OT DIIS     0.15E+00    0.7     0.00000792     -1098.7918330758  6.36E-07
  Decoupling Energy:                                               0.0675023383
  Recoupling Energy:                                              -0.0068223202
   115 OT DIIS     0.15E+00    0.7     0.00000091     -1098.7918350838 -2.01E-06

  *** SCF run converged in   115 steps ***


  Electronic density on regular grids:       -654.0000008477       -0.0000008477
  Core density on regular grids:              654.9999999993       -0.0000000007
  Total charge density on r-space grids:        0.9999991516
  Total charge density g-space grids:           0.9999991516

  Overlap energy of the core charge distribution:               0.00004213532864
  Self energy of the core charge distribution:              -2459.11679630764229
  Core Hamiltonian energy:                                    751.03827009580664
  Hartree energy:                                            1002.26600025385108
  Exchange-correlation energy:                               -294.03608070791734
  QM/MM Electrostatic energy:                                 -98.94327055321499

  Total energy:                                             -1098.79183508378810
  Decoupling Energy:                                               0.0675041030
  Recoupling Energy:                                              -0.0068223462

 ENERGY| Total FORCE_EVAL ( QMMM ) energy [a.u.]:          -1469.875704560077338

 MD_INI| MD initialization
 MD_INI| Potential energy [hartree]                          -0.146987570456E+04
 MD_INI| Total kinetic energy [hartree]                       0.215076797492E+03
 MD_INI| QM kinetic energy [hartree]                          0.369606607592E+00
 MD_INI| Total temperature [K]                                        300.000000
 MD_INI| QM temperature [K]                                           307.542546
 MD_INI| Cell volume [bohr^3]                                 9.853827160554E+06
 MD_INI| Cell volume [ang^3]                                  1.460186515536E+06
 MD_INI| Cell lengths [bohr]      2.39870119E+02  2.39870119E+02  1.71258698E+02
 MD_INI| Cell lengths [ang]       1.26933800E+02  1.26933800E+02  9.06262000E+01
 MD_INI| Cell angles [deg]        9.00000000E+01  9.00000000E+01  9.00000000E+01

  Translating the system in order to center the QM fragment in the QM box.

 Number of electrons:                                                        654
 Number of occupied orbitals:                                                327
 Number of molecular orbitals:                                               327

 Number of orbital functions:                                               2193
 Number of independent orbital functions:                                   2193

 Extrapolation method: ASPC


 SCF WAVEFUNCTION OPTIMIZATION

  ----------------------------------- OT ---------------------------------------
  Minimizer      : DIIS                : direct inversion
                                         in the iterative subspace
                                         using   7 DIIS vectors
                                         safer DIIS on
  Preconditioner : FULL_ALL            : diagonalization, state selective
  Precond_solver : DEFAULT
  stepsize       :    0.15000000                  energy_gap     :    0.08000000
  eps_taylor     :   0.10000E-15                  max_taylor     :             4
  ----------------------------------- OT ---------------------------------------

  Step     Update method      Time    Convergence         Total energy    Change
  ------------------------------------------------------------------------------
  Decoupling Energy:                                               0.0676684302
  Recoupling Energy:                                              -0.0068237631
     1 OT DIIS     0.15E+00    1.3     0.00038785     -1098.3649185639 -1.10E+03
  Decoupling Energy:                                               0.0674456870
  Recoupling Energy:                                              -0.0068207504
     2 OT DIIS     0.15E+00    0.7     0.00028126     -1098.3740106980 -9.09E-03
  Decoupling Energy:                                               0.0676533445
  Recoupling Energy:                                              -0.0068214022
     3 OT DIIS     0.15E+00    0.7     0.00045485     -1098.3736132865  3.97E-04
  Decoupling Energy:                                               0.0674798955
  Recoupling Energy:                                              -0.0068213985
     4 OT DIIS     0.15E+00    0.7     0.00017690     -1098.3760481880 -2.43E-03
  Decoupling Energy:                                               0.0674311173
  Recoupling Energy:                                              -0.0068207546
     5 OT DIIS     0.15E+00    0.7     0.00005931     -1098.3765465888 -4.98E-04
  Decoupling Energy:                                               0.0674479722
  Recoupling Energy:                                              -0.0068203560
     6 OT DIIS     0.15E+00    0.7     0.00004396     -1098.3765893079 -4.27E-05
  Decoupling Energy:                                               0.0674579008
  Recoupling Energy:                                              -0.0068208239
     7 OT DIIS     0.15E+00    0.7     0.00001585     -1098.3766113636 -2.21E-05
  Decoupling Energy:                                               0.0674443714
  Recoupling Energy:                                              -0.0068207254
     8 OT DIIS     0.15E+00    0.7     0.00000827     -1098.3766174686 -6.10E-06
  Decoupling Energy:                                               0.0674430755
  Recoupling Energy:                                              -0.0068205886
     9 OT DIIS     0.15E+00    0.7     0.00000614     -1098.3766197942 -2.33E-06
  Decoupling Energy:                                               0.0674463364
  Recoupling Energy:                                              -0.0068208238
    10 OT DIIS     0.15E+00    0.7     0.00000529     -1098.3766225563 -2.76E-06
  Decoupling Energy:                                               0.0674354653
  Recoupling Energy:                                              -0.0068206235
    11 OT DIIS     0.15E+00    0.7     0.00000390     -1098.3766252153 -2.66E-06
  Decoupling Energy:                                               0.0674363412
  Recoupling Energy:                                              -0.0068207090
    12 OT DIIS     0.15E+00    0.7     0.00000309     -1098.3766274791 -2.26E-06
  Decoupling Energy:                                               0.0674337734
  Recoupling Energy:                                              -0.0068207254
    13 OT DIIS     0.15E+00    0.7     0.00000291     -1098.3766289591 -1.48E-06
  Decoupling Energy:                                               0.0674334092
  Recoupling Energy:                                              -0.0068207027
    14 OT DIIS     0.15E+00    0.7     0.00000290     -1098.3766297281 -7.69E-07
  Decoupling Energy:                                               0.0674327906
  Recoupling Energy:                                              -0.0068207266
    15 OT DIIS     0.15E+00    0.7     0.00000264     -1098.3766305350 -8.07E-07
  Decoupling Energy:                                               0.0674319924
  Recoupling Energy:                                              -0.0068207300
    16 OT DIIS     0.15E+00    0.7     0.00000242     -1098.3766311912 -6.56E-07
  Decoupling Energy:                                               0.0674326746
  Recoupling Energy:                                              -0.0068207336
    17 OT DIIS     0.15E+00    0.7     0.00000213     -1098.3766317430 -5.52E-07
  Decoupling Energy:                                               0.0674333988
  Recoupling Energy:                                              -0.0068207738
    18 OT DIIS     0.15E+00    0.7     0.00000187     -1098.3766325764 -8.33E-07
  Decoupling Energy:                                               0.0674305937
  Recoupling Energy:                                              -0.0068207157
    19 OT DIIS     0.15E+00    0.7     0.00000170     -1098.3766330902 -5.14E-07
  Decoupling Energy:                                               0.0674312283
  Recoupling Energy:                                              -0.0068207490
    20 OT DIIS     0.15E+00    0.7     0.00000150     -1098.3766337033 -6.13E-07
  Decoupling Energy:                                               0.0674308185
  Recoupling Energy:                                              -0.0068207380
    21 OT DIIS     0.15E+00    0.7     0.00000140     -1098.3766341913 -4.88E-07
  Decoupling Energy:                                               0.0674299981
  Recoupling Energy:                                              -0.0068207237
    22 OT DIIS     0.15E+00    0.7     0.00000141     -1098.3766345448 -3.54E-07
  Decoupling Energy:                                               0.0674290129
  Recoupling Energy:                                              -0.0068207130
    23 OT DIIS     0.15E+00    0.7     0.00000139     -1098.3766348994 -3.55E-07
  Decoupling Energy:                                               0.0674285774
  Recoupling Energy:                                              -0.0068207030
    24 OT DIIS     0.15E+00    0.7     0.00000135     -1098.3766351640 -2.65E-07
  Decoupling Energy:                                               0.0674284095
  Recoupling Energy:                                              -0.0068206934
    25 OT DIIS     0.15E+00    0.7     0.00000126     -1098.3766354661 -3.02E-07
  Decoupling Energy:                                               0.0674279001
  Recoupling Energy:                                              -0.0068206888
    26 OT DIIS     0.15E+00    0.7     0.00000115     -1098.3766358290 -3.63E-07
  Decoupling Energy:                                               0.0674264057
  Recoupling Energy:                                              -0.0068206538
    27 OT DIIS     0.15E+00    0.7     0.00000110     -1098.3766360490 -2.20E-07
  Decoupling Energy:                                               0.0674262857
  Recoupling Energy:                                              -0.0068206577
    28 OT DIIS     0.15E+00    0.7     0.00000104     -1098.3766363034 -2.54E-07
  Decoupling Energy:                                               0.0674260757
  Recoupling Energy:                                              -0.0068206467
    29 OT DIIS     0.15E+00    0.7     0.00000101     -1098.3766365547 -2.51E-07
  Decoupling Energy:                                               0.0674256142
  Recoupling Energy:                                              -0.0068206358
    30 OT DIIS     0.15E+00    0.7     0.00000101     -1098.3766367932 -2.38E-07
  Decoupling Energy:                                               0.0674251645
  Recoupling Energy:                                              -0.0068206300
    31 OT DIIS     0.15E+00    0.7     0.00000101     -1098.3766370348 -2.42E-07
  Decoupling Energy:                                               0.0674251528
  Recoupling Energy:                                              -0.0068206264
    32 OT DIIS     0.15E+00    0.7     0.00000099     -1098.3766372106 -1.76E-07

  *** SCF run converged in    32 steps ***


  Electronic density on regular grids:       -654.0000005663       -0.0000005663
  Core density on regular grids:              654.9999999988       -0.0000000012
  Total charge density on r-space grids:        0.9999994325
  Total charge density g-space grids:           0.9999994325

  Overlap energy of the core charge distribution:               0.00004332475161
  Self energy of the core charge distribution:              -2459.11679630764229
  Core Hamiltonian energy:                                    750.78618554982984
  Hartree energy:                                            1002.45030912362972
  Exchange-correlation energy:                               -293.96934564589952
  QM/MM Electrostatic energy:                                 -98.52703325526940

  Total energy:                                             -1098.37663721059994
  Decoupling Energy:                                               0.0674253561
  Recoupling Energy:                                              -0.0068206266

 ENERGY| Total FORCE_EVAL ( QMMM ) energy [a.u.]:          -1447.997668664078901

 MD| ***************************************************************************
 MD| Step number                                                               1
 MD| Time [fs]                                                          1.000000
 MD| Conserved quantity [hartree]                            -0.124929046416E+04
 MD| ---------------------------------------------------------------------------
 MD|                                          Instantaneous             Averages
 MD| CPU time per MD step [s]                    185.621975           185.621975
 MD| Energy drift per atom [K]           0.115251059824E+02   0.000000000000E+00
 MD| Potential energy [hartree]         -0.144799766866E+04  -0.144799766866E+04
 MD| Total kinetic energy [hartree]      0.198707204506E+03   0.198707204506E+03
 MD| QM kinetic energy [hartree]         0.373152797402E+00   0.373152797402E+00
 MD| Total temperature [K]                       277.166863           277.166863
 MD| QM temperature [K]                          310.493263           310.493263
 MD| ***************************************************************************

 -------------------------------------------------------------------------------
 -                                                                             -
 -                                DBCSR STATISTICS                             -
 -                                                                             -
 -------------------------------------------------------------------------------
 COUNTER                                    TOTAL       BLAS       SMM       ACC
 flops     7 x     7 x     7               714126       0.0%      0.0%    100.0%
 flops    32 x     7 x     7             32645760       0.0%      0.0%    100.0%
 flops     7 x    32 x     7             32645760       0.0%      0.0%    100.0%
 flops     7 x     7 x    32             32645760       0.0%      0.0%    100.0%
 flops     7 x     7 x     5             39606700       0.0%      0.0%    100.0%
 flops     5 x     7 x     7             49474810       0.0%      0.0%    100.0%
 flops     7 x     7 x    13             87192560       0.0%      0.0%    100.0%
 flops    13 x     7 x     7            108916808       0.0%      0.0%    100.0%
 flops     5 x     5 x     7            499591050       0.0%      0.0%    100.0%
 flops    13 x     5 x     7           1090485760       0.0%      0.0%    100.0%
 flops     5 x    13 x     7           1091035400       0.0%      0.0%    100.0%
 flops    32 x    32 x     7           1492377600       0.0%      0.0%    100.0%
 flops    32 x     7 x    32           1492377600       0.0%      0.0%    100.0%
 flops     7 x    32 x    32           1492377600       0.0%      0.0%    100.0%
 flops    32 x     7 x     5           1810592000       0.0%      0.0%    100.0%
 flops     7 x    32 x     5           1810592000       0.0%      0.0%    100.0%
 flops     5 x    32 x     7           2255568000       0.0%      0.0%    100.0%
 flops     5 x     7 x    32           2255568000       0.0%      0.0%    100.0%
 flops    13 x    13 x     7           2388323210       0.0%      0.0%    100.0%
 flops     5 x     7 x     5           3980904900       0.0%      0.0%    100.0%
 flops    32 x     7 x    13           3985945600       0.0%      0.0%    100.0%
 flops     7 x    32 x    13           3985945600       0.0%      0.0%    100.0%
 flops    13 x    32 x     7           4965542400       0.0%      0.0%    100.0%
 flops    13 x     7 x    32           4965542400       0.0%      0.0%    100.0%
 flops    13 x     7 x     5           8759317840       0.0%      0.0%    100.0%
 flops     5 x     7 x    13           8759317840       0.0%      0.0%    100.0%
 flops    13 x     7 x    13          19145955920       0.0%      0.0%    100.0%
 flops     5 x     5 x    32          22838448000       0.0%      0.0%    100.0%
 flops    13 x     5 x    32          49850777600       0.0%      0.0%    100.0%
 flops     5 x    13 x    32          49875904000       0.0%      0.0%    100.0%
 flops    32 x    32 x    32          68222976000       0.0%      0.0%    100.0%
 flops    32 x    32 x     5          82769920000       0.0%      0.0%    100.0%
 flops     5 x    32 x    32         103139737600       0.0%      0.0%    100.0%
 flops    13 x    13 x    32         109180489600       0.0%      0.0%    100.0%
 flops     5 x    32 x     5         181984224000       0.0%      0.0%    100.0%
 flops    32 x    32 x    13         182214656000       0.0%      0.0%    100.0%
 flops    13 x    32 x    32         227057991680       0.0%      0.0%    100.0%
 flops    13 x    32 x     5         400425958400       0.0%      0.0%    100.0%
 flops     5 x    32 x    13         400425958400       0.0%      0.0%    100.0%
 flops    13 x    32 x    13         875243699200       0.0%      0.0%    100.0%
 flops inhomo. stacks                           0       0.0%      0.0%      0.0%
 flops total                         2.829842E+12       0.0%      0.0%    100.0%
 flops max/rank                    138.049004E+09       0.0%      0.0%    100.0%
 matmuls inhomo. stacks                         0       0.0%      0.0%      0.0%
 matmuls total                          521019818       0.0%      0.0%    100.0%
 number of processed stacks              15178410       0.0%      0.0%    100.0%
 average stack size                                     0.0      65.0      34.3
 marketing flops                     3.077046E+12
 -------------------------------------------------------------------------------
 # multiplications                           3127
 max memory usage/rank               1.865650E+09
 # max total images/rank                        2
 # max 3D layers                                1
 # MPI messages exchanged                 1300832
 MPI messages size (bytes):
  total size                       255.908004E+09
  min size                           0.000000E+00
  max size                           1.236480E+06
  average size                     196.726406E+03
 MPI breakdown and total messages size (bytes):
             size <=      128                1168                        0
       128 < size <=     8192              133230               1091420160
      8192 < size <=    32768              397272               7737871848
     32768 < size <=   131072              237690              16070642040
    131072 < size <=  4194304              531472             231010428160
   4194304 < size <= 16777216                   0                        0
  16777216 < size                               0                        0
 -------------------------------------------------------------------------------

 *** WARNING in dbcsr_mm.F:294 :: Using a non-square number of MPI ranks ***
 *** might lead to poor performance. Used ranks: 32 Suggested: 36 64     ***

 -------------------------------------------------------------------------------
 -                                                                             -
 -                      DBCSR MESSAGE PASSING PERFORMANCE                      -
 -                                                                             -
 -------------------------------------------------------------------------------
 ROUTINE             CALLS      AVE VOLUME [Bytes]
 MP_Bcast               41                     12.
 MP_Allreduce        11353                      8.
 MP_Alltoall          9584                  18506.
 MP_ISend            97070                  95494.
 MP_IRecv            97070                  92822.
 -------------------------------------------------------------------------------

 -------------------------------------------------------------------------------
 -                                                                             -
 -                                GRID STATISTICS                              -
 -                                                                             -
 -------------------------------------------------------------------------------
 LP    KERNEL             BACKEND                              COUNT     PERCENT
 3     collocate ortho    GPU                               47330301      24.31%
 3     integrate ortho    GPU                               47108559      24.19%
 2     collocate ortho    GPU                               30809775      15.82%
 2     integrate ortho    GPU                               30396231      15.61%
 4     integrate ortho    GPU                               19583650      10.06%
 4     collocate ortho    GPU                               19206166       9.86%
 5     integrate ortho    GPU                                 257802       0.13%
 0     collocate general  REF                                  16192       0.01%
 1     integrate general  REF                                  16192       0.01%
 -------------------------------------------------------------------------------

 MEMORY| Estimated peak process memory [MiB]                                1843

 -------------------------------------------------------------------------------
 -                                                                             -
 -                         MESSAGE PASSING PERFORMANCE                         -
 -                                                                             -
 -------------------------------------------------------------------------------

 ROUTINE             CALLS      AVE VOLUME [Bytes]
 MP_Group                8
 MP_Bcast             9802                9235028.
 MP_Allreduce         4854                   8798.
 MP_Sync               133
 MP_Alltoall          2897               28544476.
 MP_SendRecv           872                  72198.
 MP_ISendRecv        18476                  72576.
 MP_Wait             34286
 MP_comm_split          62
 MP_ISend            13378                 797655.
 MP_IRecv            13376                 797668.
 MP_Recv                80                 561408.
 -------------------------------------------------------------------------------


 -------------------------------------------------------------------------------
 -                                                                             -
 -                           R E F E R E N C E S                               -
 -                                                                             -
 -------------------------------------------------------------------------------
 
 CP2K version 8.2, the CP2K developers group (2021).
 CP2K is freely available from https://www.cp2k.org/ .

 Kuehne,Thomas D.; Iannuzzi,Marcella; Del Ben,Mauro;
 Rybkin,Vladimir V.; Seewald,Patrick; Stein,Frederick; Laino,Teodoro;
 Khaliullin,Rustam Z.; Schuett,Ole; Schiffmann,Florian; Golze,Dorothea;
 Wilhelm,Jan; Chulkov,Sergey; Bani-Hashemian,Mohammad Hossein;
 Weber,Valery; Borstnik,Urban; Taillefumier,Mathieu;
 Jakobovits,Alice Shoshana; Lazzaro,Alfio; Pabst,Hans; Mueller,Tiziano;
 Schade,Robert; Guidon,Manuel; Andermatt,Samuel; Holmberg,Nico;
 Schenter,Gregory K.; Hehn,Anna; Bussy,Augustin; Belleflamme,Fabian;
 Tabacchi,Gloria; Gloess,Andreas; Lass,Michael; Bethune,Iain;
 Mundy,Christopher J.; Plessl,Christian; Watkins,Matt;
 VandeVondele,Joost; Krack,Matthias; Hutter,Juerg. 
 The Journal of Chemical Physics, 152 (19), (2020). 
 CP2K: An electronic structure and molecular dynamics software package -
 Quickstep: Efficient and accurate electronic structure calculations.
 https://doi.org/10.1063/5.0007045

 Schuett, Ole; Messmer, Peter; Hutter, Juerg; VandeVondele, Joost. 
 Electronic Structure Calculations on Graphics Processing Units, John
 Wiley & Sons, Ltd, 173-190 (2016). 
 GPU-Accelerated Sparse Matrix-Matrix Multiplication for
 Linear Scaling Density Functional Theory.
 https://doi.org/10.1002/9781118670712.ch8

 Heinecke, A; Henry, G; Hutchinson, M; Pabst, H. 
 Proceedings of Intl. Supercomputing Conference, 981-991 (2016). 
 LIBXSMM: Accelerating Small Matrix Multiplications
 by Runtime Code Generation.
 https://doi.org/10.1109/SC.2016.83

 Borstnik, U; VandeVondele, J; Weber, V; Hutter, J. 
 PARALLEL COMPUTING, 40 (5-6), 47-58 (2014). 
 Sparse matrix multiplication: The distributed block-compressed sparse
 row library.
 https://doi.org/10.1016/j.parco.2014.03.012

 Hutter, J; Iannuzzi, M; Schiffmann, F; VandeVondele, J. 
 WIREs Comput Mol Sci., 4 (1), 15-25 (2014). 
 CP2K: atomistic simulations of condensed matter systems.
 https://doi.org/10.1002/wcms.1159

 Marek, A; Blum, V; Johanni, R; Havu, V; Lang, B; Auckenthaler, T;
 Heinecke, A; Bungartz, H; Lederer, H. 
 Journal of Physics: Condensed Matter, 26 (21), (2014). 
 The ELPA library: scalable parallel eigenvalue solutions for
 electronic structure
 theory and computational science.
 https://doi.org/10.1088/0953-8984/26/21/213201

 VandeVondele, J; Hutter, J. 
 JOURNAL OF CHEMICAL PHYSICS, 127 (11), 114105 (2007). 
 Gaussian basis sets for accurate calculations on molecular systems in
 gas and condensed phases.
 https://doi.org/10.1063/1.2770708

 Kuhne, TD; Krack, M; Mohamed, FR; Parrinello, M. 
 PHYSICAL REVIEW LETTERS, 98 (6), 066401 (2007). 
 Efficient and accurate Car-Parrinello-like approach to
 Born-Oppenheimer molecular dynamics.
 https://doi.org/10.1103/PhysRevLett.98.066401

 Laino, T; Mohamed, F; Laio, A; Parrinello, M. 
 JOURNAL OF CHEMICAL THEORY AND COMPUTATION, 2 (5), 1370-1378 (2006). 
 An efficient linear-scaling electrostatic coupling for treating
 periodic boundary conditions in QM/MM simulations.
 https://doi.org/10.1021/ct6001169

 Laino, T; Mohamed, F; Laio, A; Parrinello, M. 
 JOURNAL OF CHEMICAL THEORY AND COMPUTATION, 1 (6), 1176-1184 (2005). 
 An efficient real space multigrid QM/MM electrostatic coupling.
 https://doi.org/10.1021/ct050123f

 Krack, M. 
 THEORETICAL CHEMISTRY ACCOUNTS, 114 (1-3), 145-152 (2005). 
 Pseudopotentials for H to Kr optimized for gradient-corrected
 exchange-correlation functionals.
 https://doi.org/10.1007/s00214-005-0655-y

 VandeVondele, J; Krack, M; Mohamed, F; Parrinello, M; Chassaing, T;
 Hutter, J. COMPUTER PHYSICS COMMUNICATIONS, 167 (2), 103-128 (2005). 
 QUICKSTEP: Fast and accurate density functional calculations using a
 mixed Gaussian and plane waves approach.
 https://doi.org/10.1016/j.cpc.2004.12.014

 Frigo, M; Johnson, SG. 
 PROCEEDINGS OF THE IEEE, 93 (2), 216-231 (2005). 
 The design and implementation of FFTW3.
 https://doi.org/10.1109/JPROC.2004.840301

 Kolafa, J. 
 JOURNAL OF COMPUTATIONAL CHEMISTRY, 25 (3), 335-342 (2004). 
 Time-reversible always stable predictor-corrector method for molecular dynamics of polarizable molecules.
 https://doi.org/10.1002/jcc.10385

 VandeVondele, J; Hutter, J. 
 JOURNAL OF CHEMICAL PHYSICS, 118 (10), 4365-4369 (2003). 
 An efficient orbital transformation method for electronic structure
 calculations.
 https://doi.org/10.1063/1.1543154

 Hartwigsen, C; Goedecker, S; Hutter, J. 
 PHYSICAL REVIEW B, 58 (7), 3641-3662 (1998). 
 Relativistic separable dual-space Gaussian pseudopotentials from H to Rn.
 https://doi.org/10.1103/PhysRevB.58.3641

 Lippert, G; Hutter, J; Parrinello, M. 
 MOLECULAR PHYSICS, 92 (3), 477-487 (1997). 
 A hybrid Gaussian and plane wave density functional scheme.
 https://doi.org/10.1080/002689797170220

 Goedecker, S; Teter, M; Hutter, J. 
 PHYSICAL REVIEW B, 54 (3), 1703-1710 (1996). 
 Separable dual-space Gaussian pseudopotentials.
 https://doi.org/10.1103/PhysRevB.54.1703

 ESSMANN, U; PERERA, L; BERKOWITZ, ML; DARDEN, T; LEE, H; PEDERSEN, LG. 
 JOURNAL OF CHEMICAL PHYSICS, 103 (19), 8577-8593 (1995). 
 A SMOOTH PARTICLE MESH EWALD METHOD.
 https://doi.org/10.1063/1.470117

 BLOCHL, PE. 
 JOURNAL OF CHEMICAL PHYSICS, 103 (17), 7422-7428 (1995). 
 ELECTROSTATIC DECOUPLING OF PERIODIC IMAGES OF PLANE-WAVE-EXPANDED
 DENSITIES AND DERIVED ATOMIC POINT CHARGES.
 https://doi.org/10.1063/1.470314

 BECKE, AD. PHYSICAL REVIEW A, 38 (6), 3098-3100 (1988). 
 DENSITY-FUNCTIONAL EXCHANGE-ENERGY APPROXIMATION WITH CORRECT
 ASYMPTOTIC-BEHAVIOR.
 https://doi.org/10.1103/PhysRevA.38.3098

 LEE, CT; YANG, WT; PARR, RG. 
 PHYSICAL REVIEW B, 37 (2), 785-789 (1988). 
 DEVELOPMENT OF THE COLLE-SALVETTI CORRELATION-ENERGY FORMULA INTO A
 FUNCTIONAL OF THE ELECTRON-DENSITY.
 https://doi.org/10.1103/PhysRevB.37.785


 -------------------------------------------------------------------------------
 -                                                                             -
 -                                T I M I N G                                  -
 -                                                                             -
 -------------------------------------------------------------------------------
 SUBROUTINE                       CALLS  ASD         SELF TIME        TOTAL TIME
                                MAXIMUM       AVERAGE  MAXIMUM  AVERAGE  MAXIMUM
 CP2K                                 1  1.0    0.256    0.301  249.083  249.084
 qs_mol_dyn_low                       1  2.0    0.006    0.006  186.567  187.996
 qs_forces                            2  3.5    0.000    0.000  126.354  126.356
 qs_energies                          2  4.5    0.000    0.000  124.574  124.579
 scf_env_do_scf                       2  5.5    0.000    0.000  116.488  116.489
 scf_env_do_scf_inner_loop          147  6.2    0.003    0.009  110.350  110.364
 rebuild_ks_matrix                  149  8.2    0.001    0.001   61.689   62.413
 qs_ks_build_kohn_sham_matrix       149  9.2    0.018    0.021   61.688   62.412
 qs_ks_update_qs_env                149  7.2    0.001    0.001   60.329   61.044
 qmmm_env_create                      1  2.0    7.219    7.421   60.723   60.728
 velocity_verlet                      1  3.0    0.004    0.005   54.150   54.164
 fist_init                            1  3.0    0.000    0.000   48.282   48.284
 dbcsr_multiply_generic            3127 12.4    0.135    0.145   41.528   43.795
 multiply_cannon                   3127 13.4    0.514    0.570   31.031   38.947
 qmmm_el_coupling                     2  3.5    0.000    0.000   38.903   38.912
 qmmm_elec_with_gaussian              2  4.5    0.003    0.003   38.902   38.910
 pw_transfer                       3002 11.9    0.169    0.188   38.105   38.451
 qmmm_elec_with_gaussian_low          2  5.5    0.000    0.000   31.288   38.407
 fft_wrap_pw1pw2                   2545 12.9    0.023    0.026   37.625   37.995
 multiply_cannon_loop              3127 14.4    0.637    0.690   29.552   37.413
 fft_wrap_pw1pw2_150               1643 14.1    0.008    0.009   35.080   35.706
 qs_scf_new_mos                     147  7.2    0.001    0.001   33.641   34.100
 qs_scf_loop_do_ot                  147  8.2    0.001    0.001   33.640   34.099
 ot_scf_mini                        147  9.2    0.003    0.003   31.068   31.367
 multiply_cannon_multrec          25016 15.4    7.209   19.916   18.579   30.884
 qmmm_elec_gaussian_low_G             2  6.5   26.089   30.770   26.089   30.770
 force_field_control                  1  4.0    0.000    0.000   28.602   30.177
 rdparm_amber_8                       2  6.5   21.099   24.461   26.727   27.165
 qs_vxc_create                      149 10.2    0.003    0.004   27.039   27.082
 xc_vxc_pw_create                   149 11.2    0.770    0.798   27.036   27.080
 ot_mini                            147 10.2    0.001    0.001   21.446   22.138
 dbcsr_mm_accdrv_process          70688 15.9   10.552   21.148   11.132   21.367
 pw_cuda_c1dr3d_3d_ps              1349 15.5    0.022    0.024   19.940   20.470
 pw_cuda_r3dc1d_3d_ps              1196 14.3    0.020    0.023   17.652   18.456
 topology_control                     1  4.0    0.000    0.000   17.869   18.382
 qs_rho_update_rho                  149  7.2    0.001    0.001   16.602   17.231
 calculate_rho_elec                 149  8.2    0.565    0.567   16.601   17.230
 mp_waitall_1                    221036 16.3    9.918   17.202    9.918   17.202
 sum_up_and_integrate               149 10.2    0.221    0.243   16.721   16.844
 integrate_v_rspace                 149 11.2    0.004    0.005   16.500   16.633
 force_field_pack                     1  5.0    0.016    0.017   14.993   16.507
 multiply_cannon_metrocomm3       25016 15.4    0.049    0.051    7.252   14.996
 mp_alltoall_z22v                  2545 16.9   12.207   14.663   12.207   14.663
 connectivity_control                 2  4.0    0.000    0.000   13.963   14.490
 qmmm_forces                          2  3.5    0.008    0.010   14.349   14.351
 read_force_field_amber               1  5.0    0.004    0.005   13.537   14.155
 qmmm_forces_with_gaussian            2  4.5    0.005    0.007   10.189   14.051
 qs_ot_get_derivative               147 11.2    0.001    0.001   13.311   13.611
 read_connectivity_amber              1  6.0    0.000    0.000   13.195   13.455
 qmmm_force_with_gaussian_low         2  5.5    0.000    0.000    9.420   13.281
 density_rs2pw                      149  9.2    0.005    0.006   12.497   13.049
 xc_rho_set_and_dset_create         149 12.2    0.800    0.871   12.475   12.854
 mp_sum_l                          9652 13.0    7.324   11.930    7.324   11.930
 force_field_pack_ub                  1  6.0    9.670   11.875    9.670   11.875
 qs_ks_ddapc                        149 10.2    0.002    0.002   10.620   10.756
 rs_pw_transfer                    1204 11.7    0.015    0.017    9.535   10.115
 x_to_yz                           1349 16.5    2.492    3.216    8.943    9.907
 potential_pw2rs                    149 12.2    0.030    0.035    9.173    9.220
 mp_sync                            133 14.2    7.129    8.951    7.129    8.951
 qmmm_forces_gaussian_low_R           2  6.5    0.000    0.000    5.363    8.287
 qmmm_forces_with_gaussian_LG         2  7.5    5.363    8.287    5.363    8.287
 yz_to_x                           1196 15.3    1.596    2.053    7.353    8.100
 ot_diis_step                       147 11.2    0.004    0.005    7.704    7.709
 qmmm_elec_gaussian_low_R             2  6.5    0.000    0.000    5.199    7.638
 qmmm_elec_with_gaussian_LG           2  7.5    5.199    7.638    5.199    7.638
 cp_ddapc_apply_CD                  149 11.2    0.013    0.260    7.345    7.345
 grid_integrate_task_list           149 12.2    4.506    7.166    4.506    7.166
 calculate_dm_sparse                149  9.2    0.001    0.001    5.929    6.937
 apply_preconditioner_dbcsr         149 12.2    0.000    0.000    6.127    6.856
 apply_all                          149 13.2    0.011    0.016    6.127    6.855
 pw_cuda_sf                        1349 16.5    6.574    6.837    6.574    6.837
 pw_cuda_fg                        1196 15.3    6.288    6.785    6.288    6.785
 mp_sum_d                          4980 10.9    4.824    6.656    4.824    6.656
 init_scf_run                         2  5.5    0.000    0.000    6.434    6.434
 scf_env_initial_rho_setup            2  6.5    0.000    0.000    6.434    6.434
 calculate_first_density_matrix       1  7.0    0.000    0.000    5.122    6.137
 init_scf_loop                        2  6.5    0.000    0.000    6.121    6.122
 mp_sum_dm                          258  4.8    4.643    5.594    4.643    5.594
 mp_waitany                       13376 13.6    4.859    5.476    4.859    5.476
 mp_alltoall_d11v                  1818 14.2    4.035    5.394    4.035    5.394
 fist_calc_energy_force               2  3.5    0.017    0.019    5.242    5.246
 prepare_preconditioner               2  7.5    0.000    0.000    5.173    5.184
 pw_integral_ab                    1331  8.3    3.413    3.532    4.711    5.108
 parser_read_line               1180343  7.6    0.264    0.298    4.184    5.038
 qmmm_forces_gaussian_low_G           2  6.5    4.057    4.994    4.057    4.994
 -------------------------------------------------------------------------------

 The number of warnings for this run is : 1
 
 -------------------------------------------------------------------------------
  **** **** ******  **  PROGRAM ENDED AT                 2021-07-26 14:10:55.491
 ***** ** ***  *** **   PROGRAM RAN ON                                    r2i4n0
 **    ****   ******    PROGRAM RAN BY                                    hollyj
 ***** **    ** ** **   PROGRAM PROCESS ID                                 66166
  **** **  *******  **  PROGRAM STOPPED IN /lustre/home/w68/hollyj/CP2K/Cirrus/G
                                           PU/cp2kMD/ClC-253-BLYP/1STEPS/8NODES/
                                           36CPN/10THREADS
