 DBCSR| CPU Multiplication driver                                           XSMM
 DBCSR| Multrec recursion limit                                              512
 DBCSR| Multiplication stack size                                          30000
 DBCSR| Maximum elements for images                                    UNLIMITED
 DBCSR| Multiplicative factor virtual images                                   1
 DBCSR| Use multiplication densification                                       F
 DBCSR| Multiplication size stacks                                             3
 DBCSR| Use memory pool for CPU allocation                                     F
 DBCSR| Number of 3D layers                                               SINGLE
 DBCSR| Use MPI memory allocation                                              F
 DBCSR| Use RMA algorithm                                                      F
 DBCSR| Use Communication thread                                               T
 DBCSR| Communication thread load                                             53
 DBCSR| MPI: My node id                                                        0
 DBCSR| MPI: Number of nodes                                                   8
 DBCSR| OMP: Current number of threads                                        10
 DBCSR| OMP: Max number of threads                                            10
 DBCSR| ACC: Number of devices/node                                            4
 DBCSR| ACC: Number of priority stack-buffers                                 40
 DBCSR| ACC: Number of posterior stack-buffers                                80
 DBCSR| ACC: Number of priority streams                                        4
 DBCSR| ACC: Number of posterior streams                                       4
 DBCSR| ACC: Avoid driver after busy                                           F
 DBCSR| ACC: Process inhomogeneous stacks                                      T
 DBCSR| ACC: Min. flop for processing                                          0
 DBCSR| ACC: Min. flop for sorting                                          4000
 DBCSR| ACC: Number of binning bins                                         4096
 DBCSR| ACC: Size of binning bins                                             16
 DBCSR| Split modifier for TAS multiplication algorithm                  1.0E+00


  **** **** ******  **  PROGRAM STARTED AT               2021-07-26 11:42:58.725
 ***** ** ***  *** **   PROGRAM STARTED ON                                r2i5n3
 **    ****   ******    PROGRAM STARTED BY                                hollyj
 ***** **    ** ** **   PROGRAM PROCESS ID                                 20272
  **** **  *******  **  PROGRAM STARTED IN /lustre/home/w68/hollyj/CP2K/Cirrus/G
                                           PU/cp2kMD/CBD_PHY-PBE0/6STEPS/2NODES/
                                           36CPN/10THREADS

 CP2K| version string:                                          CP2K version 8.2
 CP2K| source code revision number:                                  git:310b7ab
 CP2K| cp2kflags: omp libint fftw3 libxc elpa parallel mpi3 scalapack cosma pw_c
 CP2K|            uda xsmm cuda_profiling dbcsr_acc spglib mkl grid_cuda
 CP2K| is freely available from                            https://www.cp2k.org/
 CP2K| Program compiled at                          Thu Jul 22 18:07:58 BST 2021
 CP2K| Program compiled on                                                r2i5n7
 CP2K| Program compiled for                                           Cirrus-gcc
 CP2K| Data directory path       /lustre/home/w68/hollyj/CP2K/v8.2/cp2k-8.2/data
 CP2K| Input file name                                          CBD_PHY-cp2k.inp

 GLOBAL| Force Environment number                                              1
 GLOBAL| Basis set file name                                           HFX_BASIS
 GLOBAL| Potential file name                                           POTENTIAL
 GLOBAL| MM Potential file name                                     MM_POTENTIAL
 GLOBAL| Coordinate file name                                        CBD_PHY.pdb
 GLOBAL| Method name                                                        CP2K
 GLOBAL| Project name                                               CBD_PHY-PBE0
 GLOBAL| Run type                                                             MD
 GLOBAL| FFT library                                                       FFTW3
 GLOBAL| Diagonalization library                                            ELPA
 GLOBAL| Minimum number of eigenvectors for ELPA usage                        16
 GLOBAL| Orthonormality check for eigenvectors                          DISABLED
 GLOBAL| Matrix multiplication library                                     COSMA
 GLOBAL| All-to-all communication in single precision                          F
 GLOBAL| FFTs using library dependent lengths                                  F
 GLOBAL| Grid backend                                                       AUTO
 GLOBAL| Global print level                                                  LOW
 GLOBAL| MPI I/O enabled                                                       T
 GLOBAL| Total number of message passing processes                             8
 GLOBAL| Number of threads for this process                                   10
 GLOBAL| This output is from process                                           0
 GLOBAL| CPU model name                 Intel(R) Xeon(R) Gold 6248 CPU @ 2.50GHz
 GLOBAL| CPUID                                                              1003

 MEMORY| system memory details [Kb]
 MEMORY|                        rank 0           min           max       average
 MEMORY| MemTotal            394535408     394535408     394535408     394535408
 MEMORY| MemFree             387628980     387407176     387629008     387518088
 MEMORY| Buffers                     0             0             0             0
 MEMORY| Cached                 767328        767324        767692        767508
 MEMORY| Slab                   990144        990144       1002048        996096
 MEMORY| SReclaimable           183948        158788        183948        171368
 MEMORY| MemLikelyFree       388580256     388333656     388580280     388456965



                      ************* ******** ***********   
                     ************* **********************  
                     ****     **** ****      ***********   
                     ******** ****  *******     ****       
                     *******  ****   *******   ****        
                     ****     ****       ****  ****        
                     ****     **** **********  ****        
                      ****     **** ********    ****       
                     FRONTIERS IN SIMULATION TECHNOLOGY    
                                                           
                        C.J. Mundy, S. Balasubramanian,    
                     Ken Bagchi, J. Hutter, Ari Seitsonen  
                      IFW Kuo, T. Laino, J. VandeVondele   
                                 Version 1.0               

                                                           


 EWALD| Summation is done by:                                               SPME
 EWALD| Alpha parameter [       ANGSTROM^-1]                              0.4000
 EWALD| Real Space Cutoff [          ANGSTROM]                            8.4348
 EWALD| G-space max. Miller index                         80        80        80
 EWALD| Spline interpolation order                                             6

 FORCEFIELD| WARNING: A non Critical ForceField parameter is missing! CP2K GOES!
 FORCEFIELD| Non critical parameters are:Urey-Bradley,Torsions,Impropers, Opbends and 1-4
 FORCEFIELD| All missing parameters will not contribute to the potential energy!
 FORCEFIELD| Activate the print key FF_INFO to have a list of missing parameters

 CHARGE_INFO| Total Charge of the Classical System:                    -0.825808

 SPLINE_INFO| Generating 101926 splines for NONBONDED14 interactions 
              Due to 451 different atomic kinds
  ...10192  ...20384  ...30576  ...40768  ...50960  ...61152  ...71344  ...81536  ...91728  ...101920
 SPLINE_INFO| Number of unique splines computed:            301
 SPLINE_INFO| Done

 SPLINE_INFO| Generating 101926 splines for NONBONDED interactions 
              Due to 451 different atomic kinds
  ...10192  ...20384  ...30576  ...40768  ...50960  ...61152  ...71344  ...81536  ...91728  ...101920
 SPLINE_INFO| Number of unique splines computed:            301
 SPLINE_INFO| Done

 *******************************************************************************
 *******************************************************************************
 **                                                                           **
 **     #####                         ##              ##                      **
 **    ##   ##            ##          ##              ##                      **
 **   ##     ##                       ##            ######                    **
 **   ##     ##  ##   ##  ##   #####  ##  ##   ####   ##    #####    #####    **
 **   ##     ##  ##   ##  ##  ##      ## ##   ##      ##   ##   ##  ##   ##   **
 **   ##  ## ##  ##   ##  ##  ##      ####     ###    ##   ######   ######    **
 **    ##  ###   ##   ##  ##  ##      ## ##      ##   ##   ##       ##        **
 **     #######   #####   ##   #####  ##  ##  ####    ##    #####   ##        **
 **           ##                                                    ##        **
 **                                                                           **
 **                                                ... make the atoms dance   **
 **                                                                           **
 **            Copyright (C) by CP2K developers group (2000-2021)             **
 **                      J. Chem. Phys. 152, 194103 (2020)                    **
 **                                                                           **
 *******************************************************************************


 TOTAL NUMBERS AND MAXIMUM NUMBERS

  Total number of            - Atomic kinds:                                   5
                             - Atoms:                                         68
                             - Shell sets:                                   340
                             - Shells:                                       445
                             - Primitive Cartesian functions:                476
                             - Cartesian basis functions:                   1137
                             - Spherical basis functions:                   1067

  Maximum angular momentum of- Orbital basis functions:                        2
                             - Local part of the GTH pseudopotential:          2
                             - Non-local part of the GTH pseudopotential:      0


 SCF PARAMETERS         Density guess:                                   RESTART
                        --------------------------------------------------------
                        max_scf:                                              30
                        max_scf_history:                                       0
                        max_diis:                                              4
                        --------------------------------------------------------
                        eps_scf:                                        1.00E-06
                        eps_scf_history:                                0.00E+00
                        eps_diis:                                       1.00E-01
                        eps_eigval:                                     1.00E-05
                        --------------------------------------------------------
                        level_shift [a.u.]:                                 0.00
                        --------------------------------------------------------
                        Outer loop SCF in use 
                        No variables optimised in outer loop
                        eps_scf                                         1.00E-06
                        max_scf                                               20
                        No outer loop optimization
                        step_size                                       5.00E-01

 *******************************************************************************
 *******************************************************************************
 **                                                                           **
 **             #######  ##     ## ##     ## ##     ##                        **
 **            ##     ## ###   ### ###   ### ###   ###                        **
 **            ##     ## #### #### #### #### #### ####                        **
 **            ##     ## ## ### ## ## ### ## ## ### ##                        **
 **            ##  ## ## ##     ## ##     ## ##     ##                        **
 **            ##    ##  ##     ## ##     ## ##     ##  T.Laino and F.Mohamed **
 **             ##### ## ##     ## ##     ## ##     ##  2005 - 2015           **
 **                                                                           **
 **                                                     Calculation Started.. **
 *******************************************************************************
 *******************************************************************************

 MD_PAR| Molecular dynamics protocol (MD input parameters)
 MD_PAR| Ensemble type                                                       NVE
 MD_PAR| Number of time steps                                                  6
 MD_PAR| Time step [fs]                                                 1.000000
 MD_PAR| Temperature [K]                                              300.000000
 MD_PAR| Temperature tolerance [K]                                      0.000000
 MD_PAR| Print MD information every                                    1 step(s)
 MD_PAR| File type   Print frequency [steps]                          File names
 MD_PAR| Coordinates          1                           CBD_PHY-PBE0-pos-1.xyz
 MD_PAR| Velocities           1                           CBD_PHY-PBE0-vel-1.xyz
 MD_PAR| Energies             1                              CBD_PHY-PBE0-1.ener
 MD_PAR| Dump                20                           CBD_PHY-PBE0-1.restart

 ROT| Rotational analysis information
 ROT| Principal axes and moments of inertia [a.u.]
 ROT|                           1                   2                   3
 ROT| Eigenvalues      7.21623863333E+03   6.33320921951E+08   6.33322441751E+08
 ROT|      x              0.594439314747      0.755242083864      0.276136371824
 ROT|      y             -0.607310314858      0.646719561172     -0.461441210410
 ROT|      z             -0.527082614540      0.106598329996      0.843101840522
 ROT| Number of rotovibrational vectors                                        6

 DOF| Calculation of degrees of freedom
 DOF| Number of atoms                                                     167923
 DOF| Number of intramolecular constraints                                     0
 DOF| Number of intermolecular constraints                                     0
 DOF| Invariants (translations + rotations)                                    3
 DOF| Degrees of freedom                                                  503766

 DOF| Restraints information
 DOF| Number of intramolecular restraints                                      0
 DOF| Number of intermolecular restraints                                      0

 MD_VEL| Velocities initialization
 MD_VEL| Initial temperature [K]                                      300.000000
 MD_VEL| COM velocity            -0.0000000000     0.0000000000     0.0000000000

  Translating the system in order to center the QM fragment in the QM box.

 Number of electrons:                                                        180
 Number of occupied orbitals:                                                 90
 Number of molecular orbitals:                                                90

 Number of orbital functions:                                               1067
 Number of independent orbital functions:                                   1067

 Extrapolation method: initial_guess


 SCF WAVEFUNCTION OPTIMIZATION

  ----------------------------------- OT ---------------------------------------
  Minimizer      : DIIS                : direct inversion
                                         in the iterative subspace
                                         using   7 DIIS vectors
                                         safer DIIS on
  Preconditioner : FULL_ALL            : diagonalization, state selective
  Precond_solver : DEFAULT
  stepsize       :    0.15000000                  energy_gap     :    0.08000000
  eps_taylor     :   0.10000E-15                  max_taylor     :             4
  ----------------------------------- OT ---------------------------------------

  Step     Update method      Time    Convergence         Total energy    Change
  ------------------------------------------------------------------------------
  Decoupling Energy:                                               0.0370647021
  Recoupling Energy:                                              -0.0063741479
     1 OT DIIS     0.15E+00   21.8     0.00129057      -255.9257316490 -2.56E+02
  Decoupling Energy:                                               0.0370576004
  Recoupling Energy:                                              -0.0063740314
     2 OT DIIS     0.15E+00    6.9     0.00057761      -255.9419521948 -1.62E-02
  Decoupling Energy:                                               0.0369596417
  Recoupling Energy:                                              -0.0063730135
     3 OT DIIS     0.15E+00    6.8     0.00038348      -255.9451217290 -3.17E-03
  Decoupling Energy:                                               0.0369795470
  Recoupling Energy:                                              -0.0063732416
     4 OT DIIS     0.15E+00    6.8     0.00009866      -255.9458275741 -7.06E-04
  Decoupling Energy:                                               0.0369716948
  Recoupling Energy:                                              -0.0063731487
     5 OT DIIS     0.15E+00    6.9     0.00003992      -255.9458779659 -5.04E-05
  Decoupling Energy:                                               0.0369737640
  Recoupling Energy:                                              -0.0063731649
     6 OT DIIS     0.15E+00    6.8     0.00001793      -255.9458894143 -1.14E-05
  Decoupling Energy:                                               0.0369741808
  Recoupling Energy:                                              -0.0063731680
     7 OT DIIS     0.15E+00    6.8     0.00000621      -255.9458922911 -2.88E-06
  Decoupling Energy:                                               0.0369727127
  Recoupling Energy:                                              -0.0063731518
     8 OT DIIS     0.15E+00    6.8     0.00000242      -255.9458926301 -3.39E-07
  Decoupling Energy:                                               0.0369731060
  Recoupling Energy:                                              -0.0063731556
     9 OT DIIS     0.15E+00    6.8     0.00000111      -255.9458926795 -4.94E-08
  Decoupling Energy:                                               0.0369728227
  Recoupling Energy:                                              -0.0063731526
    10 OT DIIS     0.15E+00    6.8     0.00000048      -255.9458926897 -1.02E-08

  *** SCF run converged in    10 steps ***


  Electronic density on regular grids:       -179.9999999999        0.0000000001
  Core density on regular grids:              180.9999999999       -0.0000000001
  Total charge density on r-space grids:        1.0000000000
  Total charge density g-space grids:           1.0000000000

  Overlap energy of the core charge distribution:               0.00001951532734
  Self energy of the core charge distribution:               -615.71576003586028
  Core Hamiltonian energy:                                    191.01363228273479
  Hartree energy:                                             248.20663861896713
  Exchange-correlation energy:                                -61.38430761437715
  Hartree-Fock Exchange energy:                               -18.10821018317182
  QM/MM Electrostatic energy:                                   0.04209472671006

  Total energy:                                              -255.94589268966993

  outer SCF iter =    1 RMS gradient =   0.48E-06 energy =       -255.9458926897
  outer SCF loop converged in   1 iterations or   10 steps

  Decoupling Energy:                                               0.0369728028
  Recoupling Energy:                                              -0.0063731523

 ENERGY| Total FORCE_EVAL ( QMMM ) energy [a.u.]:          -1088.110859622375983

 MD_INI| MD initialization
 MD_INI| Potential energy [hartree]                          -0.108811085962E+04
 MD_INI| Total kinetic energy [hartree]                       0.239300084734E+03
 MD_INI| QM kinetic energy [hartree]                          0.106639360339E+00
 MD_INI| Total temperature [K]                                        300.000000
 MD_INI| QM temperature [K]                                           330.137318
 MD_INI| Cell volume [bohr^3]                                 1.137316355424E+07
 MD_INI| Cell volume [ang^3]                                  1.685328937712E+06
 MD_INI| Cell lengths [bohr]      2.24884969E+02  2.24884969E+02  2.24884969E+02
 MD_INI| Cell lengths [ang]       1.19004000E+02  1.19004000E+02  1.19004000E+02
 MD_INI| Cell angles [deg]        9.00000000E+01  9.00000000E+01  9.00000000E+01

  Translating the system in order to center the QM fragment in the QM box.

 Number of electrons:                                                        180
 Number of occupied orbitals:                                                 90
 Number of molecular orbitals:                                                90

 Number of orbital functions:                                               1067
 Number of independent orbital functions:                                   1067

 Extrapolation method: ASPC


 SCF WAVEFUNCTION OPTIMIZATION

  ----------------------------------- OT ---------------------------------------
  Minimizer      : DIIS                : direct inversion
                                         in the iterative subspace
                                         using   7 DIIS vectors
                                         safer DIIS on
  Preconditioner : FULL_ALL            : diagonalization, state selective
  Precond_solver : DEFAULT
  stepsize       :    0.15000000                  energy_gap     :    0.08000000
  eps_taylor     :   0.10000E-15                  max_taylor     :             4
  ----------------------------------- OT ---------------------------------------

  Step     Update method      Time    Convergence         Total energy    Change
  ------------------------------------------------------------------------------
  Decoupling Energy:                                               0.0370014665
  Recoupling Energy:                                              -0.0063734172
     1 OT DIIS     0.15E+00   15.0     0.00075899      -255.7182135343 -2.56E+02
  Decoupling Energy:                                               0.0370082401
  Recoupling Energy:                                              -0.0063735356
     2 OT DIIS     0.15E+00    7.2     0.00032685      -255.7237313765 -5.52E-03
  Decoupling Energy:                                               0.0370087430
  Recoupling Energy:                                              -0.0063735590
     3 OT DIIS     0.15E+00    7.1     0.00019068      -255.7247686934 -1.04E-03
  Decoupling Energy:                                               0.0370199903
  Recoupling Energy:                                              -0.0063736817
     4 OT DIIS     0.15E+00    7.1     0.00006054      -255.7249611355 -1.92E-04
  Decoupling Energy:                                               0.0370216785
  Recoupling Energy:                                              -0.0063737045
     5 OT DIIS     0.15E+00    7.1     0.00001954      -255.7249777005 -1.66E-05
  Decoupling Energy:                                               0.0370210027
  Recoupling Energy:                                              -0.0063736984
     6 OT DIIS     0.15E+00    7.1     0.00000817      -255.7249799589 -2.26E-06
  Decoupling Energy:                                               0.0370221951
  Recoupling Energy:                                              -0.0063737124
     7 OT DIIS     0.15E+00    7.1     0.00000308      -255.7249804209 -4.62E-07
  Decoupling Energy:                                               0.0370222404
  Recoupling Energy:                                              -0.0063737133
     8 OT DIIS     0.15E+00    7.1     0.00000136      -255.7249804982 -7.72E-08
  Decoupling Energy:                                               0.0370224680
  Recoupling Energy:                                              -0.0063737160
     9 OT DIIS     0.15E+00    7.1     0.00000058      -255.7249805139 -1.57E-08

  *** SCF run converged in     9 steps ***


  Electronic density on regular grids:       -180.0000000000        0.0000000000
  Core density on regular grids:              180.9999999999       -0.0000000001
  Total charge density on r-space grids:        0.9999999999
  Total charge density g-space grids:           0.9999999999

  Overlap energy of the core charge distribution:               0.00002422740145
  Self energy of the core charge distribution:               -615.71576003586028
  Core Hamiltonian energy:                                    191.21094368125063
  Hartree energy:                                             248.07775437236074
  Exchange-correlation energy:                                -61.42683492199171
  Hartree-Fock Exchange energy:                               -18.12283156573208
  QM/MM Electrostatic energy:                                   0.25172372867677

  Total energy:                                              -255.72498051389448

  outer SCF iter =    1 RMS gradient =   0.58E-06 energy =       -255.7249805139
  outer SCF loop converged in   1 iterations or    9 steps

  Decoupling Energy:                                               0.0370224966
  Recoupling Energy:                                              -0.0063737164

 ENERGY| Total FORCE_EVAL ( QMMM ) energy [a.u.]:          -1059.962356692462663

 MD| ***************************************************************************
 MD| Step number                                                               1
 MD| Time [fs]                                                          1.000000
 MD| Conserved quantity [hartree]                            -0.841461427858E+03
 MD| ---------------------------------------------------------------------------
 MD|                                          Instantaneous             Averages
 MD| CPU time per MD step [s]                    355.658896           355.658896
 MD| Energy drift per atom [K]           0.138202477970E+02   0.000000000000E+00
 MD| Potential energy [hartree]         -0.105996235669E+04  -0.105996235669E+04
 MD| Total kinetic energy [hartree]      0.218500928834E+03   0.218500928834E+03
 MD| QM kinetic energy [hartree]         0.121346708938E+00   0.121346708938E+00
 MD| Total temperature [K]                       273.925012           273.925012
 MD| QM temperature [K]                          375.668768           375.668768
 MD| ***************************************************************************

  Translating the system in order to center the QM fragment in the QM box.

 Number of electrons:                                                        180
 Number of occupied orbitals:                                                 90
 Number of molecular orbitals:                                                90

 Number of orbital functions:                                               1067
 Number of independent orbital functions:                                   1067

 Extrapolation method: ASPC


 SCF WAVEFUNCTION OPTIMIZATION

  ----------------------------------- OT ---------------------------------------
  Minimizer      : DIIS                : direct inversion
                                         in the iterative subspace
                                         using   7 DIIS vectors
                                         safer DIIS on
  Preconditioner : FULL_ALL            : diagonalization, state selective
  Precond_solver : DEFAULT
  stepsize       :    0.15000000                  energy_gap     :    0.08000000
  eps_taylor     :   0.10000E-15                  max_taylor     :             4
  ----------------------------------- OT ---------------------------------------

  Step     Update method      Time    Convergence         Total energy    Change
  ------------------------------------------------------------------------------
  Decoupling Energy:                                               0.0370782105
  Recoupling Energy:                                              -0.0063743359
     1 OT DIIS     0.15E+00   14.8     0.00029266      -255.3622517638 -2.55E+02
  Decoupling Energy:                                               0.0370714318
  Recoupling Energy:                                              -0.0063742685
     2 OT DIIS     0.15E+00    6.7     0.00012384      -255.3630881156 -8.36E-04
  Decoupling Energy:                                               0.0370747354
  Recoupling Energy:                                              -0.0063743004
     3 OT DIIS     0.15E+00    6.7     0.00005684      -255.3632555409 -1.67E-04
  Decoupling Energy:                                               0.0370720687
  Recoupling Energy:                                              -0.0063742775
     4 OT DIIS     0.15E+00    6.8     0.00001757      -255.3632743657 -1.88E-05
  Decoupling Energy:                                               0.0370725450
  Recoupling Energy:                                              -0.0063742816
     5 OT DIIS     0.15E+00    6.8     0.00000683      -255.3632758934 -1.53E-06
  Decoupling Energy:                                               0.0370729622
  Recoupling Energy:                                              -0.0063742866
     6 OT DIIS     0.15E+00    6.8     0.00000313      -255.3632761516 -2.58E-07
  Decoupling Energy:                                               0.0370729463
  Recoupling Energy:                                              -0.0063742865
     7 OT DIIS     0.15E+00    6.8     0.00000106      -255.3632762126 -6.10E-08
  Decoupling Energy:                                               0.0370730049
  Recoupling Energy:                                              -0.0063742872
     8 OT DIIS     0.15E+00    6.8     0.00000048      -255.3632762227 -1.02E-08

  *** SCF run converged in     8 steps ***


  Electronic density on regular grids:       -180.0000000000       -0.0000000000
  Core density on regular grids:              180.9999999999       -0.0000000001
  Total charge density on r-space grids:        0.9999999998
  Total charge density g-space grids:           0.9999999998

  Overlap energy of the core charge distribution:               0.00005088900857
  Self energy of the core charge distribution:               -615.71576003586028
  Core Hamiltonian energy:                                    191.44418691417326
  Hartree energy:                                             247.94136513319918
  Exchange-correlation energy:                                -61.47332422056832
  Hartree-Fock Exchange energy:                               -18.13880602727296
  QM/MM Electrostatic energy:                                   0.57901112459392

  Total energy:                                              -255.36327622272663

  outer SCF iter =    1 RMS gradient =   0.48E-06 energy =       -255.3632762227
  outer SCF loop converged in   1 iterations or    8 steps

  Decoupling Energy:                                               0.0370730214
  Recoupling Energy:                                              -0.0063742875

 ENERGY| Total FORCE_EVAL ( QMMM ) energy [a.u.]:          -1061.235329162883545

 MD| ***************************************************************************
 MD| Step number                                                               2
 MD| Time [fs]                                                          2.000000
 MD| Conserved quantity [hartree]                            -0.842817775771E+03
 MD| ---------------------------------------------------------------------------
 MD|                                          Instantaneous             Averages
 MD| CPU time per MD step [s]                    157.532003           256.595450
 MD| Energy drift per atom [K]           0.112696723271E+02   0.563483616353E+01
 MD| Potential energy [hartree]         -0.106123532916E+04  -0.106059884293E+04
 MD| Total kinetic energy [hartree]      0.218417553392E+03   0.218459241113E+03
 MD| QM kinetic energy [hartree]         0.111576865697E+00   0.116461787318E+00
 MD| Total temperature [K]                       273.820488           273.872750
 MD| QM temperature [K]                          345.422995           360.545881
 MD| ***************************************************************************

  Translating the system in order to center the QM fragment in the QM box.

 Number of electrons:                                                        180
 Number of occupied orbitals:                                                 90
 Number of molecular orbitals:                                                90

 Number of orbital functions:                                               1067
 Number of independent orbital functions:                                   1067

 Extrapolation method: ASPC


 SCF WAVEFUNCTION OPTIMIZATION

  ----------------------------------- OT ---------------------------------------
  Minimizer      : DIIS                : direct inversion
                                         in the iterative subspace
                                         using   7 DIIS vectors
                                         safer DIIS on
  Preconditioner : FULL_ALL            : diagonalization, state selective
  Precond_solver : DEFAULT
  stepsize       :    0.15000000                  energy_gap     :    0.08000000
  eps_taylor     :   0.10000E-15                  max_taylor     :             4
  ----------------------------------- OT ---------------------------------------

  Step     Update method      Time    Convergence         Total energy    Change
  ------------------------------------------------------------------------------
  Decoupling Energy:                                               0.0371231168
  Recoupling Energy:                                              -0.0063748338
     1 OT DIIS     0.15E+00   14.9     0.00057306      -254.8840287936 -2.55E+02
  Decoupling Energy:                                               0.0371264011
  Recoupling Energy:                                              -0.0063748789
     2 OT DIIS     0.15E+00    7.2     0.00022562      -254.8871541530 -3.13E-03
  Decoupling Energy:                                               0.0371270697
  Recoupling Energy:                                              -0.0063748845
     3 OT DIIS     0.15E+00    7.1     0.00008221      -254.8877094472 -5.55E-04
  Decoupling Energy:                                               0.0371223280
  Recoupling Energy:                                              -0.0063748372
     4 OT DIIS     0.15E+00    7.1     0.00002756      -254.8877595811 -5.01E-05
  Decoupling Energy:                                               0.0371233171
  Recoupling Energy:                                              -0.0063748478
     5 OT DIIS     0.15E+00    7.1     0.00001037      -254.8877633902 -3.81E-06
  Decoupling Energy:                                               0.0371231570
  Recoupling Energy:                                              -0.0063748450
     6 OT DIIS     0.15E+00    7.1     0.00000439      -254.8877639766 -5.86E-07
  Decoupling Energy:                                               0.0371230794
  Recoupling Energy:                                              -0.0063748446
     7 OT DIIS     0.15E+00    7.1     0.00000136      -254.8877640666 -9.00E-08
  Decoupling Energy:                                               0.0371230816
  Recoupling Energy:                                              -0.0063748446
     8 OT DIIS     0.15E+00    7.1     0.00000059      -254.8877640775 -1.09E-08

  *** SCF run converged in     8 steps ***


  Electronic density on regular grids:       -180.0000000003       -0.0000000003
  Core density on regular grids:              180.9999999999       -0.0000000001
  Total charge density on r-space grids:        0.9999999996
  Total charge density g-space grids:           0.9999999996

  Overlap energy of the core charge distribution:               0.00005124450024
  Self energy of the core charge distribution:               -615.71576003586028
  Core Hamiltonian energy:                                    191.49124298580645
  Hartree energy:                                             247.90729104815517
  Exchange-correlation energy:                                -61.48094381374683
  Hartree-Fock Exchange energy:                               -18.14140110092539
  QM/MM Electrostatic energy:                                   1.05175559458211

  Total energy:                                              -254.88776407748847

  outer SCF iter =    1 RMS gradient =   0.59E-06 energy =       -254.8877640775
  outer SCF loop converged in   1 iterations or    8 steps

  Decoupling Energy:                                               0.0371230812
  Recoupling Energy:                                              -0.0063748446

 ENERGY| Total FORCE_EVAL ( QMMM ) energy [a.u.]:          -1082.045341504950784

 MD| ***************************************************************************
 MD| Step number                                                               3
 MD| Time [fs]                                                          3.000000
 MD| Conserved quantity [hartree]                            -0.846392352206E+03
 MD| ---------------------------------------------------------------------------
 MD|                                          Instantaneous             Averages
 MD| CPU time per MD step [s]                    163.989909           225.726936
 MD| Energy drift per atom [K]           0.454777827273E+01   0.527248353326E+01
 MD| Potential energy [hartree]         -0.108204534150E+04  -0.106774767579E+04
 MD| Total kinetic energy [hartree]      0.235652989299E+03   0.224190490508E+03
 MD| QM kinetic energy [hartree]         0.117355088278E+00   0.116759554304E+00
 MD| Total temperature [K]                       295.427797           281.057766
 MD| QM temperature [K]                          363.311389           361.467717
 MD| ***************************************************************************

  Translating the system in order to center the QM fragment in the QM box.

 Number of electrons:                                                        180
 Number of occupied orbitals:                                                 90
 Number of molecular orbitals:                                                90

 Number of orbital functions:                                               1067
 Number of independent orbital functions:                                   1067

 Extrapolation method: ASPC


 SCF WAVEFUNCTION OPTIMIZATION

  ----------------------------------- OT ---------------------------------------
  Minimizer      : DIIS                : direct inversion
                                         in the iterative subspace
                                         using   7 DIIS vectors
                                         safer DIIS on
  Preconditioner : FULL_ALL            : diagonalization, state selective
  Precond_solver : DEFAULT
  stepsize       :    0.15000000                  energy_gap     :    0.08000000
  eps_taylor     :   0.10000E-15                  max_taylor     :             4
  ----------------------------------- OT ---------------------------------------

  Step     Update method      Time    Convergence         Total energy    Change
  ------------------------------------------------------------------------------
  Decoupling Energy:                                               0.0371654306
  Recoupling Energy:                                              -0.0063753278
     1 OT DIIS     0.15E+00   14.8     0.00026725      -254.3372999544 -2.54E+02
  Decoupling Energy:                                               0.0371743193
  Recoupling Energy:                                              -0.0063754108
     2 OT DIIS     0.15E+00    6.9     0.00010719      -254.3379937482 -6.94E-04
  Decoupling Energy:                                               0.0371690379
  Recoupling Energy:                                              -0.0063753557
     3 OT DIIS     0.15E+00    6.9     0.00004003      -254.3381225188 -1.29E-04
  Decoupling Energy:                                               0.0371715273
  Recoupling Energy:                                              -0.0063753820
     4 OT DIIS     0.15E+00    6.9     0.00001254      -254.3381324657 -9.95E-06
  Decoupling Energy:                                               0.0371702327
  Recoupling Energy:                                              -0.0063753690
     5 OT DIIS     0.15E+00    6.9     0.00000536      -254.3381332939 -8.28E-07
  Decoupling Energy:                                               0.0371705348
  Recoupling Energy:                                              -0.0063753715
     6 OT DIIS     0.15E+00    6.9     0.00000190      -254.3381334298 -1.36E-07
  Decoupling Energy:                                               0.0371705475
  Recoupling Energy:                                              -0.0063753718
     7 OT DIIS     0.15E+00    6.9     0.00000064      -254.3381334485 -1.86E-08

  *** SCF run converged in     7 steps ***


  Electronic density on regular grids:       -179.9999999999        0.0000000001
  Core density on regular grids:              180.9999999999       -0.0000000001
  Total charge density on r-space grids:        1.0000000000
  Total charge density g-space grids:           1.0000000000

  Overlap energy of the core charge distribution:               0.00002358452829
  Self energy of the core charge distribution:               -615.71576003586028
  Core Hamiltonian energy:                                    191.34732282959720
  Hartree energy:                                             247.97609645755068
  Exchange-correlation energy:                                -61.44936764802729
  Hartree-Fock Exchange energy:                               -18.13041818009889
  QM/MM Electrostatic energy:                                   1.63396954383183

  Total energy:                                              -254.33813344847846

  outer SCF iter =    1 RMS gradient =   0.64E-06 energy =       -254.3381334485
  outer SCF loop converged in   1 iterations or    7 steps

  Decoupling Energy:                                               0.0371704710
  Recoupling Energy:                                              -0.0063753710

 ENERGY| Total FORCE_EVAL ( QMMM ) energy [a.u.]:          -1079.714053999130783

 MD| ***************************************************************************
 MD| Step number                                                               4
 MD| Time [fs]                                                          4.000000
 MD| Conserved quantity [hartree]                            -0.842113598840E+03
 MD| ---------------------------------------------------------------------------
 MD|                                          Instantaneous             Averages
 MD| CPU time per MD step [s]                    150.398030           206.894710
 MD| Energy drift per atom [K]           0.125938579514E+02   0.710282713778E+01
 MD| Potential energy [hartree]         -0.107971405400E+04  -0.107073927034E+04
 MD| Total kinetic energy [hartree]      0.237600455160E+03   0.227542981671E+03
 MD| QM kinetic energy [hartree]         0.148327053141E+00   0.124651429014E+00
 MD| Total temperature [K]                       297.869249           285.260637
 MD| QM temperature [K]                          459.195323           385.899619
 MD| ***************************************************************************

  Translating the system in order to center the QM fragment in the QM box.

 Number of electrons:                                                        180
 Number of occupied orbitals:                                                 90
 Number of molecular orbitals:                                                90

 Number of orbital functions:                                               1067
 Number of independent orbital functions:                                   1067

 Extrapolation method: ASPC


 SCF WAVEFUNCTION OPTIMIZATION

  ----------------------------------- OT ---------------------------------------
  Minimizer      : DIIS                : direct inversion
                                         in the iterative subspace
                                         using   7 DIIS vectors
                                         safer DIIS on
  Preconditioner : FULL_ALL            : diagonalization, state selective
  Precond_solver : DEFAULT
  stepsize       :    0.15000000                  energy_gap     :    0.08000000
  eps_taylor     :   0.10000E-15                  max_taylor     :             4
  ----------------------------------- OT ---------------------------------------

  Step     Update method      Time    Convergence         Total energy    Change
  ------------------------------------------------------------------------------
  Decoupling Energy:                                               0.0372102487
  Recoupling Energy:                                              -0.0063758451
     1 OT DIIS     0.15E+00   14.9     0.00032174      -253.7449299213 -2.54E+02
  Decoupling Energy:                                               0.0372070865
  Recoupling Energy:                                              -0.0063758004
     2 OT DIIS     0.15E+00    7.2     0.00013176      -253.7458498655 -9.20E-04
  Decoupling Energy:                                               0.0372094151
  Recoupling Energy:                                              -0.0063758222
     3 OT DIIS     0.15E+00    7.1     0.00006229      -253.7460090387 -1.59E-04
  Decoupling Energy:                                               0.0372087658
  Recoupling Energy:                                              -0.0063758147
     4 OT DIIS     0.15E+00    7.1     0.00002407      -253.7460401774 -3.11E-05
  Decoupling Energy:                                               0.0372096122
  Recoupling Energy:                                              -0.0063758219
     5 OT DIIS     0.15E+00    7.1     0.00000521      -253.7460426633 -2.49E-06
  Decoupling Energy:                                               0.0372092963
  Recoupling Energy:                                              -0.0063758192
     6 OT DIIS     0.15E+00    7.1     0.00000250      -253.7460428056 -1.42E-07
  Decoupling Energy:                                               0.0372092977
  Recoupling Energy:                                              -0.0063758190
     7 OT DIIS     0.15E+00    7.1     0.00000089      -253.7460428373 -3.17E-08

  *** SCF run converged in     7 steps ***


  Electronic density on regular grids:       -180.0000000000       -0.0000000000
  Core density on regular grids:              180.9999999999       -0.0000000001
  Total charge density on r-space grids:        0.9999999998
  Total charge density g-space grids:           0.9999999998

  Overlap energy of the core charge distribution:               0.00001841779947
  Self energy of the core charge distribution:               -615.71576003586028
  Core Hamiltonian energy:                                    191.22473528922302
  Hartree energy:                                             248.04795424552174
  Exchange-correlation energy:                                -61.41798732295776
  Hartree-Fock Exchange energy:                               -18.11952146758979
  QM/MM Electrostatic energy:                                   2.23451803651442

  Total energy:                                              -253.74604283734919

  outer SCF iter =    1 RMS gradient =   0.89E-06 energy =       -253.7460428373
  outer SCF loop converged in   1 iterations or    7 steps

  Decoupling Energy:                                               0.0372093275
  Recoupling Energy:                                              -0.0063758194

 ENERGY| Total FORCE_EVAL ( QMMM ) energy [a.u.]:          -1094.307011188036540

 MD| ***************************************************************************
 MD| Step number                                                               5
 MD| Time [fs]                                                          5.000000
 MD| Conserved quantity [hartree]                            -0.848389416936E+03
 MD| ---------------------------------------------------------------------------
 MD|                                          Instantaneous             Averages
 MD| CPU time per MD step [s]                    155.406324           196.597032
 MD| Energy drift per atom [K]           0.792352203375E+00   0.584073215090E+01
 MD| Potential energy [hartree]         -0.109430701119E+04  -0.107545281851E+04
 MD| Total kinetic energy [hartree]      0.245917594252E+03   0.231217904187E+03
 MD| QM kinetic energy [hartree]         0.157564064014E+00   0.131233956014E+00
 MD| Total temperature [K]                       308.296081           289.867725
 MD| QM temperature [K]                          487.791538           406.278002
 MD| ***************************************************************************

  Translating the system in order to center the QM fragment in the QM box.

 Number of electrons:                                                        180
 Number of occupied orbitals:                                                 90
 Number of molecular orbitals:                                                90

 Number of orbital functions:                                               1067
 Number of independent orbital functions:                                   1067

 Extrapolation method: ASPC


 SCF WAVEFUNCTION OPTIMIZATION

  ----------------------------------- OT ---------------------------------------
  Minimizer      : DIIS                : direct inversion
                                         in the iterative subspace
                                         using   7 DIIS vectors
                                         safer DIIS on
  Preconditioner : FULL_ALL            : diagonalization, state selective
  Precond_solver : DEFAULT
  stepsize       :    0.15000000                  energy_gap     :    0.08000000
  eps_taylor     :   0.10000E-15                  max_taylor     :             4
  ----------------------------------- OT ---------------------------------------

  Step     Update method      Time    Convergence         Total energy    Change
  ------------------------------------------------------------------------------
  Decoupling Energy:                                               0.0372439659
  Recoupling Energy:                                              -0.0063762172
     1 OT DIIS     0.15E+00   14.8     0.00048989      -253.1925146699 -2.53E+02
  Decoupling Energy:                                               0.0372420208
  Recoupling Energy:                                              -0.0063762276
     2 OT DIIS     0.15E+00    6.8     0.00019230      -253.1946662800 -2.15E-03
  Decoupling Energy:                                               0.0372396945
  Recoupling Energy:                                              -0.0063761952
     3 OT DIIS     0.15E+00    6.8     0.00008072      -253.1950241930 -3.58E-04
  Decoupling Energy:                                               0.0372398297
  Recoupling Energy:                                              -0.0063761985
     4 OT DIIS     0.15E+00    6.8     0.00002220      -253.1950831581 -5.90E-05
  Decoupling Energy:                                               0.0372388149
  Recoupling Energy:                                              -0.0063761872
     5 OT DIIS     0.15E+00    6.8     0.00000823      -253.1950856935 -2.54E-06
  Decoupling Energy:                                               0.0372394816
  Recoupling Energy:                                              -0.0063761928
     6 OT DIIS     0.15E+00    6.8     0.00000283      -253.1950860434 -3.50E-07
  Decoupling Energy:                                               0.0372392227
  Recoupling Energy:                                              -0.0063761904
     7 OT DIIS     0.15E+00    6.8     0.00000086      -253.1950860829 -3.95E-08

  *** SCF run converged in     7 steps ***


  Electronic density on regular grids:       -180.0000000000       -0.0000000000
  Core density on regular grids:              180.9999999999       -0.0000000001
  Total charge density on r-space grids:        0.9999999999
  Total charge density g-space grids:           0.9999999999

  Overlap energy of the core charge distribution:               0.00001843284167
  Self energy of the core charge distribution:               -615.71576003586028
  Core Hamiltonian energy:                                    191.21894350498212
  Hartree energy:                                             248.05853727931463
  Exchange-correlation energy:                                -61.40902653124232
  Hartree-Fock Exchange energy:                               -18.11645336598266
  QM/MM Electrostatic energy:                                   2.76865463300852

  Total energy:                                              -253.19508608293833

  outer SCF iter =    1 RMS gradient =   0.86E-06 energy =       -253.1950860829
  outer SCF loop converged in   1 iterations or    7 steps

  Decoupling Energy:                                               0.0372392195
  Recoupling Energy:                                              -0.0063761903

 ENERGY| Total FORCE_EVAL ( QMMM ) energy [a.u.]:          -1057.339965313218499

 MD| ***************************************************************************
 MD| Step number                                                               6
 MD| Time [fs]                                                          6.000000
 MD| Conserved quantity [hartree]                            -0.842900324628E+03
 MD| ---------------------------------------------------------------------------
 MD|                                          Instantaneous             Averages
 MD| CPU time per MD step [s]                    149.500608           188.747628
 MD| Energy drift per atom [K]           0.111144414404E+02   0.671968369915E+01
 MD| Potential energy [hartree]         -0.105733996531E+04  -0.107243400964E+04
 MD| Total kinetic energy [hartree]      0.214439640685E+03   0.228421526937E+03
 MD| QM kinetic energy [hartree]         0.141132337713E+00   0.132883686297E+00
 MD| Total temperature [K]                       268.833554           286.362030
 MD| QM temperature [K]                          436.921708           411.385287
 MD| ***************************************************************************

 -------------------------------------------------------------------------------
 -                                                                             -
 -                                DBCSR STATISTICS                             -
 -                                                                             -
 -------------------------------------------------------------------------------
 COUNTER                                    TOTAL       BLAS       SMM       ACC
 flops    26 x    26 x    26             13709280       0.0%      0.0%    100.0%
 flops    26 x    32 x    26             33745920       0.0%      0.0%    100.0%
 flops    32 x    26 x    26             33745920       0.0%      0.0%    100.0%
 flops    26 x    26 x    32             33745920       0.0%      0.0%    100.0%
 flops    32 x    32 x    26             83066880       0.0%      0.0%    100.0%
 flops    26 x    32 x    32             83066880       0.0%      0.0%    100.0%
 flops    32 x    26 x    32             83066880       0.0%      0.0%    100.0%
 flops    26 x    26 x     9             92756664       0.0%      0.0%    100.0%
 flops     9 x    26 x    26            115243128       0.0%      0.0%    100.0%
 flops     9 x     9 x    26            165405240       0.0%      0.0%    100.0%
 flops    32 x    32 x    32            204472320       0.0%      0.0%    100.0%
 flops    26 x    32 x     9            228324096       0.0%      0.0%    100.0%
 flops    32 x    26 x     9            228324096       0.0%      0.0%    100.0%
 flops    26 x    26 x    22            240480240       0.0%      0.0%    100.0%
 flops     9 x    32 x    26            276756480       0.0%      0.0%    100.0%
 flops     9 x    26 x    32            276756480       0.0%      0.0%    100.0%
 flops    22 x    26 x    26            298778480       0.0%      0.0%    100.0%
 flops     9 x     9 x    32            407151360       0.0%      0.0%    100.0%
 flops    22 x     9 x    26            415855440       0.0%      0.0%    100.0%
 flops     9 x    22 x    26            416576160       0.0%      0.0%    100.0%
 flops    32 x    32 x     9            562028544       0.0%      0.0%    100.0%
 flops    26 x    32 x    22            591951360       0.0%      0.0%    100.0%
 flops    32 x    26 x    22            591951360       0.0%      0.0%    100.0%
 flops     9 x    32 x    32            689762304       0.0%      0.0%    100.0%
 flops    22 x    32 x    26            717516800       0.0%      0.0%    100.0%
 flops    22 x    26 x    32            717516800       0.0%      0.0%    100.0%
 flops    22 x     9 x    32           1023644160       0.0%      0.0%    100.0%
 flops     9 x    22 x    32           1025418240       0.0%      0.0%    100.0%
 flops    22 x    22 x    26           1109908800       0.0%      0.0%    100.0%
 flops     9 x    26 x     9           1380647268       0.0%      0.0%    100.0%
 flops    32 x    32 x    22           1457111040       0.0%      0.0%    100.0%
 flops    22 x    32 x    32           1788272640       0.0%      0.0%    100.0%
 flops    22 x    22 x    32           2732083200       0.0%      0.0%    100.0%
 flops     9 x    32 x     9           3398516352       0.0%      0.0%    100.0%
 flops    22 x    26 x     9           3579455880       0.0%      0.0%    100.0%
 flops     9 x    26 x    22           3579455880       0.0%      0.0%    100.0%
 flops    22 x    32 x     9           8810968320       0.0%      0.0%    100.0%
 flops     9 x    32 x    22           8810968320       0.0%      0.0%    100.0%
 flops    22 x    26 x    22           9280070800       0.0%      0.0%    100.0%
 flops    22 x    32 x    22          22843251200       0.0%      0.0%    100.0%
 flops inhomo. stacks                           0       0.0%      0.0%      0.0%
 flops total                        78.421527E+09       0.0%      0.0%    100.0%
 flops max/rank                     13.925976E+09       0.0%      0.0%    100.0%
 matmuls inhomo. stacks                         0       0.0%      0.0%      0.0%
 matmuls total                            4992822       0.0%      0.0%    100.0%
 number of processed stacks                426267       0.0%      0.0%    100.0%
 average stack size                                     0.0       0.0      11.7
 marketing flops                    85.671830E+09
 -------------------------------------------------------------------------------
 # multiplications                           1286
 max memory usage/rank               6.213972E+09
 # max total images/rank                        2
 # max 3D layers                                1
 # MPI messages exchanged                   51440
 MPI messages size (bytes):
  total size                        10.161478E+09
  min size                           0.000000E+00
  max size                           1.196352E+06
  average size                     197.540391E+03
 MPI breakdown and total messages size (bytes):
             size <=      128               11951                        0
       128 < size <=     8192                9561                 70525344
      8192 < size <=    32768                3510                 48859200
     32768 < size <=   131072               14910               1232564256
    131072 < size <=  4194304               11508               8809536120
   4194304 < size <= 16777216                   0                        0
  16777216 < size                               0                        0
 -------------------------------------------------------------------------------

 *** WARNING in dbcsr_mm.F:294 :: Using a non-square number of MPI ranks ***
 *** might lead to poor performance. Used ranks: 8 Suggested: 9 16       ***

 -------------------------------------------------------------------------------
 -                                                                             -
 -                      DBCSR MESSAGE PASSING PERFORMANCE                      -
 -                                                                             -
 -------------------------------------------------------------------------------
 ROUTINE             CALLS      AVE VOLUME [Bytes]
 MP_Bcast               41                     12.
 MP_Allreduce         4615                      8.
 MP_Alltoall          5344                  38949.
 MP_ISend            19180                  81914.
 MP_IRecv            19180                  77186.
 -------------------------------------------------------------------------------

 -------------------------------------------------------------------------------
 -                                                                             -
 -                                GRID STATISTICS                              -
 -                                                                             -
 -------------------------------------------------------------------------------
 LP    KERNEL             BACKEND                              COUNT     PERCENT
 2     collocate ortho    GPU                                1935914      19.15%
 2     integrate ortho    GPU                                1906668      18.86%
 1     collocate ortho    GPU                                1672709      16.54%
 1     integrate ortho    GPU                                1542789      15.26%
 3     integrate ortho    GPU                                 940503       9.30%
 3     collocate ortho    GPU                                 816065       8.07%
 0     collocate ortho    GPU                                 503426       4.98%
 0     integrate ortho    GPU                                 447480       4.43%
 4     integrate ortho    GPU                                 200732       1.99%
 4     collocate ortho    GPU                                 123816       1.22%
 5     integrate ortho    GPU                                  13758       0.14%
 0     collocate general  REF                                   3808       0.04%
 1     integrate general  REF                                   3808       0.04%
 -------------------------------------------------------------------------------

 MEMORY| Estimated peak process memory [MiB]                                5995

 -------------------------------------------------------------------------------
 -                                                                             -
 -                         MESSAGE PASSING PERFORMANCE                         -
 -                                                                             -
 -------------------------------------------------------------------------------

 ROUTINE             CALLS      AVE VOLUME [Bytes]
 MP_Group                8
 MP_Bcast             6928               10586816.
 MP_Allreduce         2523                1629012.
 MP_Sync               430
 MP_Alltoall          1330              143193057.
 MP_ISendRecv         3773                1248005.
 MP_Wait              6300
 MP_comm_split          14
 MP_ISend             2023                5093744.
 MP_IRecv             2016                5108587.
 MP_Recv                21                 196328.
 -------------------------------------------------------------------------------


 -------------------------------------------------------------------------------
 -                                                                             -
 -                           R E F E R E N C E S                               -
 -                                                                             -
 -------------------------------------------------------------------------------
 
 CP2K version 8.2, the CP2K developers group (2021).
 CP2K is freely available from https://www.cp2k.org/ .

 Kuehne,Thomas D.; Iannuzzi,Marcella; Del Ben,Mauro;
 Rybkin,Vladimir V.; Seewald,Patrick; Stein,Frederick; Laino,Teodoro;
 Khaliullin,Rustam Z.; Schuett,Ole; Schiffmann,Florian; Golze,Dorothea;
 Wilhelm,Jan; Chulkov,Sergey; Bani-Hashemian,Mohammad Hossein;
 Weber,Valery; Borstnik,Urban; Taillefumier,Mathieu;
 Jakobovits,Alice Shoshana; Lazzaro,Alfio; Pabst,Hans; Mueller,Tiziano;
 Schade,Robert; Guidon,Manuel; Andermatt,Samuel; Holmberg,Nico;
 Schenter,Gregory K.; Hehn,Anna; Bussy,Augustin; Belleflamme,Fabian;
 Tabacchi,Gloria; Gloess,Andreas; Lass,Michael; Bethune,Iain;
 Mundy,Christopher J.; Plessl,Christian; Watkins,Matt;
 VandeVondele,Joost; Krack,Matthias; Hutter,Juerg. 
 The Journal of Chemical Physics, 152 (19), (2020). 
 CP2K: An electronic structure and molecular dynamics software package -
 Quickstep: Efficient and accurate electronic structure calculations.
 https://doi.org/10.1063/5.0007045

 Schuett, Ole; Messmer, Peter; Hutter, Juerg; VandeVondele, Joost. 
 Electronic Structure Calculations on Graphics Processing Units, John
 Wiley & Sons, Ltd, 173-190 (2016). 
 GPU-Accelerated Sparse Matrix-Matrix Multiplication for
 Linear Scaling Density Functional Theory.
 https://doi.org/10.1002/9781118670712.ch8

 Heinecke, A; Henry, G; Hutchinson, M; Pabst, H. 
 Proceedings of Intl. Supercomputing Conference, 981-991 (2016). 
 LIBXSMM: Accelerating Small Matrix Multiplications
 by Runtime Code Generation.
 https://doi.org/10.1109/SC.2016.83

 Borstnik, U; VandeVondele, J; Weber, V; Hutter, J. 
 PARALLEL COMPUTING, 40 (5-6), 47-58 (2014). 
 Sparse matrix multiplication: The distributed block-compressed sparse
 row library.
 https://doi.org/10.1016/j.parco.2014.03.012

 Hutter, J; Iannuzzi, M; Schiffmann, F; VandeVondele, J. 
 WIREs Comput Mol Sci., 4 (1), 15-25 (2014). 
 CP2K: atomistic simulations of condensed matter systems.
 https://doi.org/10.1002/wcms.1159

 Marek, A; Blum, V; Johanni, R; Havu, V; Lang, B; Auckenthaler, T;
 Heinecke, A; Bungartz, H; Lederer, H. 
 Journal of Physics: Condensed Matter, 26 (21), (2014). 
 The ELPA library: scalable parallel eigenvalue solutions for
 electronic structure
 theory and computational science.
 https://doi.org/10.1088/0953-8984/26/21/213201

 Guidon, M; Hutter, J; VandeVondele, J. 
 JOURNAL OF CHEMICAL THEORY AND COMPUTATION, 5 (11), 3010-3021 (2009). 
 Robust Periodic Hartree-Fock Exchange for Large-Scale Simulations Using
 Gaussian Basis Sets.
 https://doi.org/10.1021/ct900494g

 Guidon, M; Schiffmann, F; Hutter, J; VandeVondele, J. 
 JOURNAL OF CHEMICAL PHYSICS, 128 (21), 214104 (2008). 
 Ab initio molecular dynamics using hybrid density functionals.
 https://doi.org/10.1063/1.2931945

 Kuhne, TD; Krack, M; Mohamed, FR; Parrinello, M. 
 PHYSICAL REVIEW LETTERS, 98 (6), 066401 (2007). 
 Efficient and accurate Car-Parrinello-like approach to
 Born-Oppenheimer molecular dynamics.
 https://doi.org/10.1103/PhysRevLett.98.066401

 Laino, T; Mohamed, F; Laio, A; Parrinello, M. 
 JOURNAL OF CHEMICAL THEORY AND COMPUTATION, 2 (5), 1370-1378 (2006). 
 An efficient linear-scaling electrostatic coupling for treating
 periodic boundary conditions in QM/MM simulations.
 https://doi.org/10.1021/ct6001169

 Laino, T; Mohamed, F; Laio, A; Parrinello, M. 
 JOURNAL OF CHEMICAL THEORY AND COMPUTATION, 1 (6), 1176-1184 (2005). 
 An efficient real space multigrid QM/MM electrostatic coupling.
 https://doi.org/10.1021/ct050123f

 Krack, M. 
 THEORETICAL CHEMISTRY ACCOUNTS, 114 (1-3), 145-152 (2005). 
 Pseudopotentials for H to Kr optimized for gradient-corrected
 exchange-correlation functionals.
 https://doi.org/10.1007/s00214-005-0655-y

 VandeVondele, J; Krack, M; Mohamed, F; Parrinello, M; Chassaing, T;
 Hutter, J. COMPUTER PHYSICS COMMUNICATIONS, 167 (2), 103-128 (2005). 
 QUICKSTEP: Fast and accurate density functional calculations using a
 mixed Gaussian and plane waves approach.
 https://doi.org/10.1016/j.cpc.2004.12.014

 Frigo, M; Johnson, SG. 
 PROCEEDINGS OF THE IEEE, 93 (2), 216-231 (2005). 
 The design and implementation of FFTW3.
 https://doi.org/10.1109/JPROC.2004.840301

 Kolafa, J. 
 JOURNAL OF COMPUTATIONAL CHEMISTRY, 25 (3), 335-342 (2004). 
 Time-reversible always stable predictor-corrector method for molecular dynamics of polarizable molecules.
 https://doi.org/10.1002/jcc.10385

 VandeVondele, J; Hutter, J. 
 JOURNAL OF CHEMICAL PHYSICS, 118 (10), 4365-4369 (2003). 
 An efficient orbital transformation method for electronic structure
 calculations.
 https://doi.org/10.1063/1.1543154

 Hartwigsen, C; Goedecker, S; Hutter, J. 
 PHYSICAL REVIEW B, 58 (7), 3641-3662 (1998). 
 Relativistic separable dual-space Gaussian pseudopotentials from H to Rn.
 https://doi.org/10.1103/PhysRevB.58.3641

 Lippert, G; Hutter, J; Parrinello, M. 
 MOLECULAR PHYSICS, 92 (3), 477-487 (1997). 
 A hybrid Gaussian and plane wave density functional scheme.
 https://doi.org/10.1080/002689797170220

 Perdew, JP; Burke, K; Ernzerhof, M. 
 PHYSICAL REVIEW LETTERS, 77 (18), 3865-3868 (1996). 
 Generalized gradient approximation made simple.
 https://doi.org/10.1103/PhysRevLett.77.3865

 Goedecker, S; Teter, M; Hutter, J. 
 PHYSICAL REVIEW B, 54 (3), 1703-1710 (1996). 
 Separable dual-space Gaussian pseudopotentials.
 https://doi.org/10.1103/PhysRevB.54.1703

 ESSMANN, U; PERERA, L; BERKOWITZ, ML; DARDEN, T; LEE, H; PEDERSEN, LG. 
 JOURNAL OF CHEMICAL PHYSICS, 103 (19), 8577-8593 (1995). 
 A SMOOTH PARTICLE MESH EWALD METHOD.
 https://doi.org/10.1063/1.470117

 BLOCHL, PE. 
 JOURNAL OF CHEMICAL PHYSICS, 103 (17), 7422-7428 (1995). 
 ELECTROSTATIC DECOUPLING OF PERIODIC IMAGES OF PLANE-WAVE-EXPANDED
 DENSITIES AND DERIVED ATOMIC POINT CHARGES.
 https://doi.org/10.1063/1.470314


 -------------------------------------------------------------------------------
 -                                                                             -
 -                                T I M I N G                                  -
 -                                                                             -
 -------------------------------------------------------------------------------
 SUBROUTINE                       CALLS  ASD         SELF TIME        TOTAL TIME
                                MAXIMUM       AVERAGE  MAXIMUM  AVERAGE  MAXIMUM
 CP2K                                 1  1.0    0.490    0.539 1177.578 1177.581
 qs_mol_dyn_low                       1  2.0    0.015    0.018 1133.680 1135.169
 velocity_verlet                      6  3.0    0.055    0.064  942.385  942.991
 qs_forces                            7  3.9    0.001    0.001  790.264  790.271
 rebuild_ks_matrix                   63  8.5    0.000    0.000  749.568  749.652
 qs_ks_build_kohn_sham_matrix        63  9.5    0.009    0.010  749.567  749.652
 hfx_ks_matrix                       63 10.5    0.002    0.002  657.118  657.123
 qs_energies                          7  4.9    0.000    0.000  466.512  466.523
 scf_env_do_scf                       7  5.9    0.000    0.001  454.555  454.557
 qs_ks_update_qs_env                 63  7.8    0.001    0.001  426.076  426.151
 integrate_four_center               63 11.5    2.106    2.536  380.606  380.611
 integrate_four_center_main          63 12.5    2.929    4.104  367.004  370.103
 integrate_four_center_bin         4027 13.5  364.075  368.026  364.075  368.026
 scf_env_do_scf_inner_loop           56  6.8    0.001    0.003  345.190  345.198
 qs_ks_update_qs_env_forces           7  4.9    0.000    0.000  323.517  323.527
 derivatives_four_center              7  8.9    0.038    0.289  276.496  276.496
 derivatives_four_center_main         7  9.9    1.018    1.622  275.890  275.890
 derivatives_four_center_bin        477 10.9  273.017  273.474  273.017  273.474
 qmmm_el_coupling                     7  3.9    0.000    0.000  149.808  149.956
 qmmm_elec_with_gaussian              7  4.9    0.104    0.112  149.790  149.942
 qmmm_forces                          7  3.9    0.029    0.030  130.348  130.350
 qmmm_forces_with_gaussian            7  4.9    0.136    0.149  128.269  128.942
 qmmm_elec_with_gaussian_low          7  5.9    0.000    0.000  124.480  127.404
 init_scf_loop                        7  6.9    0.000    0.000  109.353  109.354
 qmmm_force_with_gaussian_low         7  5.9    0.000    0.000  100.829  101.162
 qmmm_forces_gaussian_low_R           7  6.9    0.000    0.000   80.911   81.148
 qmmm_forces_with_gaussian_LG         7  7.9   80.911   81.148   80.911   81.148
 pw_transfer                       1337 12.0    0.094    0.105   66.775   69.571
 qmmm_elec_gaussian_low_R             7  6.9    0.000    0.000   65.380   68.833
 qmmm_elec_with_gaussian_LG           7  7.9   65.380   68.833   65.380   68.833
 fft_wrap_pw1pw2                   1113 13.1    0.012    0.013   65.851   68.641
 fft_wrap_pw1pw2_200                707 14.4    0.004    0.005   62.852   65.703
 qmmm_elec_gaussian_low_G             7  6.9   59.100   59.744   59.100   59.744
 fist_calc_energy_force               7  3.9    0.066    0.068   56.516   56.678
 qs_vxc_create                       63 10.5    0.001    0.002   52.022   52.084
 xc_vxc_pw_create                    63 11.5    1.737    1.850   52.020   52.083
 force_nonbond                        7  4.9   28.559   42.460   28.559   42.460
 qmmm_env_create                      1  2.0    9.425    9.503   41.791   41.795
 pw_integral_ab                    2967  7.5   39.355   39.633   40.251   40.522
 pw_cuda_c1dr3d_3d_ps               595 15.5    0.012    0.014   35.290   36.086
 mp_sum_d                          1943  9.8   16.571   34.946   16.571   34.946
 pw_cuda_r3dc1d_3d_ps               518 14.7    0.010    0.010   30.543   33.291
 xc_rho_set_and_dset_create          63 12.5    0.234    0.259   25.013   26.539
 fist_init                            1  3.0    0.001    0.003   25.987   25.989
 pw_restrict_s3                      21  5.9    2.689    2.835   23.481   23.826
 -------------------------------------------------------------------------------

 The number of warnings for this run is : 1
 
 -------------------------------------------------------------------------------
  **** **** ******  **  PROGRAM ENDED AT                 2021-07-26 12:02:41.620
 ***** ** ***  *** **   PROGRAM RAN ON                                    r2i5n3
 **    ****   ******    PROGRAM RAN BY                                    hollyj
 ***** **    ** ** **   PROGRAM PROCESS ID                                 20272
  **** **  *******  **  PROGRAM STOPPED IN /lustre/home/w68/hollyj/CP2K/Cirrus/G
                                           PU/cp2kMD/CBD_PHY-PBE0/6STEPS/2NODES/
                                           36CPN/10THREADS
