 DBCSR| CPU Multiplication driver                                           XSMM
 DBCSR| Multrec recursion limit                                              512
 DBCSR| Multiplication stack size                                          30000
 DBCSR| Maximum elements for images                                    UNLIMITED
 DBCSR| Multiplicative factor virtual images                                   1
 DBCSR| Use multiplication densification                                       F
 DBCSR| Multiplication size stacks                                             3
 DBCSR| Use memory pool for CPU allocation                                     F
 DBCSR| Number of 3D layers                                               SINGLE
 DBCSR| Use MPI memory allocation                                              F
 DBCSR| Use RMA algorithm                                                      F
 DBCSR| Use Communication thread                                               T
 DBCSR| Communication thread load                                             53
 DBCSR| MPI: My node id                                                        0
 DBCSR| MPI: Number of nodes                                                  16
 DBCSR| OMP: Current number of threads                                        10
 DBCSR| OMP: Max number of threads                                            10
 DBCSR| ACC: Number of devices/node                                            4
 DBCSR| ACC: Number of priority stack-buffers                                 40
 DBCSR| ACC: Number of posterior stack-buffers                                80
 DBCSR| ACC: Number of priority streams                                        4
 DBCSR| ACC: Number of posterior streams                                       4
 DBCSR| ACC: Avoid driver after busy                                           F
 DBCSR| ACC: Process inhomogeneous stacks                                      T
 DBCSR| ACC: Min. flop for processing                                          0
 DBCSR| ACC: Min. flop for sorting                                          4000
 DBCSR| ACC: Number of binning bins                                         4096
 DBCSR| ACC: Size of binning bins                                             16
 DBCSR| Split modifier for TAS multiplication algorithm                  1.0E+00


  **** **** ******  **  PROGRAM STARTED AT               2021-08-17 17:57:02.085
 ***** ** ***  *** **   PROGRAM STARTED ON                                r2i6n0
 **    ****   ******    PROGRAM STARTED BY                                hollyj
 ***** **    ** ** **   PROGRAM PROCESS ID                                 40591
  **** **  *******  **  PROGRAM STARTED IN /lustre/home/w68/hollyj/CP2K/Cirrus/G
                                           PU/cp2kMD/MQAE/1STEPS/4NODES/36CPN/10
                                           THREADS

 CP2K| version string:                                          CP2K version 8.2
 CP2K| source code revision number:                                  git:310b7ab
 CP2K| cp2kflags: omp libint fftw3 libxc elpa parallel mpi3 scalapack cosma pw_c
 CP2K|            uda xsmm cuda_profiling dbcsr_acc spglib mkl grid_cuda
 CP2K| is freely available from                            https://www.cp2k.org/
 CP2K| Program compiled at                          Thu Jul 22 18:07:58 BST 2021
 CP2K| Program compiled on                                                r2i5n7
 CP2K| Program compiled for                                           Cirrus-gcc
 CP2K| Data directory path       /lustre/home/w68/hollyj/CP2K/v8.2/cp2k-8.2/data
 CP2K| Input file name                                             mqae-cp2k.inp

 GLOBAL| Force Environment number                                              1
 GLOBAL| Basis set file name                                        BASIS_MOLOPT
 GLOBAL| Potential file name                                           POTENTIAL
 GLOBAL| MM Potential file name                                     MM_POTENTIAL
 GLOBAL| Coordinate file name                                           mqae.pdb
 GLOBAL| Method name                                                        CP2K
 GLOBAL| Project name                                                  MQAE-BLYP
 GLOBAL| Run type                                                             MD
 GLOBAL| FFT library                                                       FFTW3
 GLOBAL| Diagonalization library                                            ELPA
 GLOBAL| Minimum number of eigenvectors for ELPA usage                        16
 GLOBAL| Orthonormality check for eigenvectors                          DISABLED
 GLOBAL| Matrix multiplication library                                     COSMA
 GLOBAL| All-to-all communication in single precision                          F
 GLOBAL| FFTs using library dependent lengths                                  F
 GLOBAL| Grid backend                                                       AUTO
 GLOBAL| Global print level                                                  LOW
 GLOBAL| MPI I/O enabled                                                       T
 GLOBAL| Total number of message passing processes                            16
 GLOBAL| Number of threads for this process                                   10
 GLOBAL| This output is from process                                           0
 GLOBAL| CPU model name                 Intel(R) Xeon(R) Gold 6248 CPU @ 2.50GHz
 GLOBAL| CPUID                                                              1003

 MEMORY| system memory details [Kb]
 MEMORY|                        rank 0           min           max       average
 MEMORY| MemTotal            394535408     394535400     394535408     394535406
 MEMORY| MemFree             386931764     386931764     387067392     387002313
 MEMORY| Buffers                     0             0             0             0
 MEMORY| Cached                 793820        769784        793820        780992
 MEMORY| Slab                  1137100       1051872       1137100       1097980
 MEMORY| SReclaimable           233636        200008        233636        214661
 MEMORY| MemLikelyFree       387959220     387959220     388037184     387997966



                      ************* ******** ***********   
                     ************* **********************  
                     ****     **** ****      ***********   
                     ******** ****  *******     ****       
                     *******  ****   *******   ****        
                     ****     ****       ****  ****        
                     ****     **** **********  ****        
                      ****     **** ********    ****       
                     FRONTIERS IN SIMULATION TECHNOLOGY    
                                                           
                        C.J. Mundy, S. Balasubramanian,    
                     Ken Bagchi, J. Hutter, Ari Seitsonen  
                      IFW Kuo, T. Laino, J. VandeVondele   
                                 Version 1.0               

                                                           


 EWALD| Summation is done by:                                               SPME
 EWALD| Alpha parameter [       ANGSTROM^-1]                              0.4000
 EWALD| Real Space Cutoff [          ANGSTROM]                            8.4348
 EWALD| G-space max. Miller index                         80        80        80
 EWALD| Spline interpolation order                                             6

 FORCEFIELD| WARNING: A non Critical ForceField parameter is missing! CP2K GOES!
 FORCEFIELD| Non critical parameters are:Urey-Bradley,Torsions,Impropers, Opbends and 1-4
 FORCEFIELD| All missing parameters will not contribute to the potential energy!
 FORCEFIELD| Activate the print key FF_INFO to have a list of missing parameters

 CHARGE_INFO| Total Charge of the Classical System:                     0.000000

 SPLINE_INFO| Generating 465 splines for NONBONDED14 interactions 
              Due to 30 different atomic kinds
  ...46  ...92  ...138  ...184  ...230  ...276  ...322  ...368  ...414  ...460
 SPLINE_INFO| Number of unique splines computed:            22
 SPLINE_INFO| Done

 SPLINE_INFO| Generating 465 splines for NONBONDED interactions 
              Due to 30 different atomic kinds
  ...46  ...92  ...138  ...184  ...230  ...276  ...322  ...368  ...414  ...460
 SPLINE_INFO| Number of unique splines computed:            22
 SPLINE_INFO| Done

 *******************************************************************************
 *******************************************************************************
 **                                                                           **
 **     #####                         ##              ##                      **
 **    ##   ##            ##          ##              ##                      **
 **   ##     ##                       ##            ######                    **
 **   ##     ##  ##   ##  ##   #####  ##  ##   ####   ##    #####    #####    **
 **   ##     ##  ##   ##  ##  ##      ## ##   ##      ##   ##   ##  ##   ##   **
 **   ##  ## ##  ##   ##  ##  ##      ####     ###    ##   ######   ######    **
 **    ##  ###   ##   ##  ##  ##      ## ##      ##   ##   ##       ##        **
 **     #######   #####   ##   #####  ##  ##  ####    ##    #####   ##        **
 **           ##                                                    ##        **
 **                                                                           **
 **                                                ... make the atoms dance   **
 **                                                                           **
 **            Copyright (C) by CP2K developers group (2000-2021)             **
 **                      J. Chem. Phys. 152, 194103 (2020)                    **
 **                                                                           **
 *******************************************************************************


 TOTAL NUMBERS AND MAXIMUM NUMBERS

  Total number of            - Atomic kinds:                                   4
                             - Atoms:                                         34
                             - Shell sets:                                    34
                             - Shells:                                       138
                             - Primitive Cartesian functions:                238
                             - Cartesian basis functions:                    332
                             - Spherical basis functions:                    314

  Maximum angular momentum of- Orbital basis functions:                        2
                             - Local part of the GTH pseudopotential:          2
                             - Non-local part of the GTH pseudopotential:      0


 SCF PARAMETERS         Density guess:                                   RESTART
                        --------------------------------------------------------
                        max_scf:                                             300
                        max_scf_history:                                       0
                        max_diis:                                              4
                        --------------------------------------------------------
                        eps_scf:                                        1.00E-06
                        eps_scf_history:                                0.00E+00
                        eps_diis:                                       1.00E-01
                        eps_eigval:                                     1.00E-05
                        --------------------------------------------------------
                        level_shift [a.u.]:                                 0.00
                        --------------------------------------------------------
                        No outer SCF

 *******************************************************************************
 *******************************************************************************
 **                                                                           **
 **             #######  ##     ## ##     ## ##     ##                        **
 **            ##     ## ###   ### ###   ### ###   ###                        **
 **            ##     ## #### #### #### #### #### ####                        **
 **            ##     ## ## ### ## ## ### ## ## ### ##                        **
 **            ##  ## ## ##     ## ##     ## ##     ##                        **
 **            ##    ##  ##     ## ##     ## ##     ##  T.Laino and F.Mohamed **
 **             ##### ## ##     ## ##     ## ##     ##  2005 - 2015           **
 **                                                                           **
 **                                                     Calculation Started.. **
 *******************************************************************************
 *******************************************************************************

 MD_PAR| Molecular dynamics protocol (MD input parameters)
 MD_PAR| Ensemble type                                                       NVE
 MD_PAR| Number of time steps                                                  1
 MD_PAR| Time step [fs]                                                 1.000000
 MD_PAR| Temperature [K]                                              300.000000
 MD_PAR| Temperature tolerance [K]                                      0.000000
 MD_PAR| Print MD information every                                    1 step(s)
 MD_PAR| File type   Print frequency [steps]                          File names
 MD_PAR| Coordinates          1                              MQAE-BLYP-pos-1.xyz
 MD_PAR| Velocities           1                              MQAE-BLYP-vel-1.xyz
 MD_PAR| Energies             1                                 MQAE-BLYP-1.ener
 MD_PAR| Dump                20                              MQAE-BLYP-1.restart

 ROT| Rotational analysis information
 ROT| Principal axes and moments of inertia [a.u.]
 ROT|                           1                   2                   3
 ROT| Eigenvalues      8.77944938721E+03   1.29891690960E+07   1.29979485454E+07
 ROT|      x             -0.558379687797      0.617732459818     -0.553731642894
 ROT|      y             -0.569867814832     -0.770688439612     -0.285114016960
 ROT|      z             -0.602878758851      0.156351965563      0.782362617327
 ROT| Number of rotovibrational vectors                                        6

 DOF| Calculation of degrees of freedom
 DOF| Number of atoms                                                       7186
 DOF| Number of intramolecular constraints                                     0
 DOF| Number of intermolecular constraints                                     0
 DOF| Invariants (translations + rotations)                                    3
 DOF| Degrees of freedom                                                   21555

 DOF| Restraints information
 DOF| Number of intramolecular restraints                                      0
 DOF| Number of intermolecular restraints                                      0

 MD_VEL| Velocities initialization
 MD_VEL| Initial temperature [K]                                      300.000000
 MD_VEL| COM velocity            -0.0000000000     0.0000000000    -0.0000000000

  Translating the system in order to center the QM fragment in the QM box.

 Number of electrons:                                                         94
 Number of occupied orbitals:                                                 47
 Number of molecular orbitals:                                                47

 Number of orbital functions:                                                314
 Number of independent orbital functions:                                    314

 Extrapolation method: initial_guess


 SCF WAVEFUNCTION OPTIMIZATION

  ----------------------------------- OT ---------------------------------------
  Minimizer      : DIIS                : direct inversion
                                         in the iterative subspace
                                         using   7 DIIS vectors
                                         safer DIIS on
  Preconditioner : FULL_ALL            : diagonalization, state selective
  Precond_solver : DEFAULT
  stepsize       :    0.15000000                  energy_gap     :    0.08000000
  eps_taylor     :   0.10000E-15                  max_taylor     :             4
  ----------------------------------- OT ---------------------------------------

  Step     Update method      Time    Convergence         Total energy    Change
  ------------------------------------------------------------------------------
  Decoupling Energy:                                               0.0725225470
  Recoupling Energy:                                              -0.0186086616
     1 OT DIIS     0.15E+00    2.0     0.00000556      -146.8268108731 -1.47E+02
  Decoupling Energy:                                               0.0725225167
  Recoupling Energy:                                              -0.0186086642
     2 OT DIIS     0.15E+00    0.3     0.00000254      -146.8268109193 -4.62E-08
  Decoupling Energy:                                               0.0725223233
  Recoupling Energy:                                              -0.0186086496
     3 OT DIIS     0.15E+00    0.3     0.00000280      -146.8268109254 -6.07E-09
  Decoupling Energy:                                               0.0725224230
  Recoupling Energy:                                              -0.0186086595
     4 OT DIIS     0.15E+00    0.3     0.00000038      -146.8268109292 -3.81E-09

  *** SCF run converged in     4 steps ***


  Electronic density on regular grids:        -93.9999999978        0.0000000022
  Core density on regular grids:               94.9999999999       -0.0000000001
  Total charge density on r-space grids:        1.0000000021
  Total charge density g-space grids:           1.0000000021

  Overlap energy of the core charge distribution:               0.00000599177744
  Self energy of the core charge distribution:               -359.57183942644110
  Core Hamiltonian energy:                                    109.64011022090732
  Hartree energy:                                             145.87568612601899
  Exchange-correlation energy:                                -42.44255599596831
  QM/MM Electrostatic energy:                                  -0.32821784546704

  Total energy:                                              -146.82681092917269
  Decoupling Energy:                                               0.0725224156
  Recoupling Energy:                                              -0.0186086578

 ENERGY| Total FORCE_EVAL ( QMMM ) energy [a.u.]:           -125.503710940008858

 MD_INI| MD initialization
 MD_INI| Potential energy [hartree]                          -0.125503710940E+03
 MD_INI| Total kinetic energy [hartree]                       0.102391057087E+02
 MD_INI| QM kinetic energy [hartree]                          0.538313910515E-01
 MD_INI| Total temperature [K]                                        300.000000
 MD_INI| QM temperature [K]                                           333.305658
 MD_INI| Cell volume [bohr^3]                                 4.911308927827E+05
 MD_INI| Cell volume [ang^3]                                  7.277808868775E+04
 MD_INI| Cell lengths [bohr]      7.88979558E+01  7.88979558E+01  7.88979558E+01
 MD_INI| Cell lengths [ang]       4.17510000E+01  4.17510000E+01  4.17510000E+01
 MD_INI| Cell angles [deg]        9.00000000E+01  9.00000000E+01  9.00000000E+01

  Translating the system in order to center the QM fragment in the QM box.

 Number of electrons:                                                         94
 Number of occupied orbitals:                                                 47
 Number of molecular orbitals:                                                47

 Number of orbital functions:                                                314
 Number of independent orbital functions:                                    314

 Extrapolation method: ASPC


 SCF WAVEFUNCTION OPTIMIZATION

  ----------------------------------- OT ---------------------------------------
  Minimizer      : DIIS                : direct inversion
                                         in the iterative subspace
                                         using   7 DIIS vectors
                                         safer DIIS on
  Preconditioner : FULL_ALL            : diagonalization, state selective
  Precond_solver : DEFAULT
  stepsize       :    0.15000000                  energy_gap     :    0.08000000
  eps_taylor     :   0.10000E-15                  max_taylor     :             4
  ----------------------------------- OT ---------------------------------------

  Step     Update method      Time    Convergence         Total energy    Change
  ------------------------------------------------------------------------------
  Decoupling Energy:                                               0.0725138029
  Recoupling Energy:                                              -0.0186075740
     1 OT DIIS     0.15E+00    0.3     0.00274277      -146.7109266889 -1.47E+02
  Decoupling Energy:                                               0.0723879408
  Recoupling Energy:                                              -0.0186017406
     2 OT DIIS     0.15E+00    0.3     0.00104140      -146.7208966760 -9.97E-03
  Decoupling Energy:                                               0.0724570966
  Recoupling Energy:                                              -0.0186050492
     3 OT DIIS     0.15E+00    0.3     0.00066070      -146.7221387200 -1.24E-03
  Decoupling Energy:                                               0.0723978978
  Recoupling Energy:                                              -0.0186016821
     4 OT DIIS     0.15E+00    0.3     0.00038715      -146.7224086889 -2.70E-04
  Decoupling Energy:                                               0.0724216591
  Recoupling Energy:                                              -0.0186034090
     5 OT DIIS     0.15E+00    0.3     0.00009431      -146.7224796281 -7.09E-05
  Decoupling Energy:                                               0.0724195069
  Recoupling Energy:                                              -0.0186030391
     6 OT DIIS     0.15E+00    0.3     0.00004935      -146.7224837980 -4.17E-06
  Decoupling Energy:                                               0.0724183951
  Recoupling Energy:                                              -0.0186031255
     7 OT DIIS     0.15E+00    0.3     0.00001392      -146.7224850395 -1.24E-06
  Decoupling Energy:                                               0.0724188352
  Recoupling Energy:                                              -0.0186031168
     8 OT DIIS     0.15E+00    0.3     0.00000613      -146.7224851410 -1.02E-07
  Decoupling Energy:                                               0.0724191548
  Recoupling Energy:                                              -0.0186031402
     9 OT DIIS     0.15E+00    0.3     0.00000189      -146.7224851679 -2.69E-08
  Decoupling Energy:                                               0.0724189012
  Recoupling Energy:                                              -0.0186031246
    10 OT DIIS     0.15E+00    0.3     0.00000116      -146.7224851699 -2.00E-09
  Decoupling Energy:                                               0.0724189779
  Recoupling Energy:                                              -0.0186031300
    11 OT DIIS     0.15E+00    0.3     0.00000032      -146.7224851710 -1.04E-09

  *** SCF run converged in    11 steps ***


  Electronic density on regular grids:        -94.0000000006       -0.0000000006
  Core density on regular grids:               94.9999999999       -0.0000000001
  Total charge density on r-space grids:        0.9999999993
  Total charge density g-space grids:           0.9999999993

  Overlap energy of the core charge distribution:               0.00003276526484
  Self energy of the core charge distribution:               -359.57183942644110
  Core Hamiltonian energy:                                    109.82313931881635
  Hartree energy:                                             145.78150468196060
  Exchange-correlation energy:                                -42.49961996739597
  QM/MM Electrostatic energy:                                  -0.25570254318921

  Total energy:                                              -146.72248517098450
  Decoupling Energy:                                               0.0724189898
  Recoupling Energy:                                              -0.0186031293

 ENERGY| Total FORCE_EVAL ( QMMM ) energy [a.u.]:           -154.940146524770626

 MD| ***************************************************************************
 MD| Step number                                                               1
 MD| Time [fs]                                                          1.000000
 MD| Conserved quantity [hartree]                            -0.123933892380E+03
 MD| ---------------------------------------------------------------------------
 MD|                                          Instantaneous             Averages
 MD| CPU time per MD step [s]                     19.633850            19.633850
 MD| Energy drift per atom [K]          -0.380954786663E+03   0.000000000000E+00
 MD| Potential energy [hartree]         -0.154940146525E+03  -0.154940146525E+03
 MD| Total kinetic energy [hartree]      0.310062541447E+02   0.310062541447E+02
 MD| QM kinetic energy [hartree]         0.224429229162E+00   0.224429229162E+00
 MD| Total temperature [K]                       908.465691           908.465691
 MD| QM temperature [K]                         1389.589428          1389.589428
 MD| ***************************************************************************

 -------------------------------------------------------------------------------
 -                                                                             -
 -                                DBCSR STATISTICS                             -
 -                                                                             -
 -------------------------------------------------------------------------------
 COUNTER                                    TOTAL       BLAS       SMM       ACC
 flops    15 x    15 x    15               756000       0.0%      0.0%    100.0%
 flops    15 x    15 x    32              1612800       0.0%      0.0%    100.0%
 flops    15 x    32 x    15              1612800       0.0%      0.0%    100.0%
 flops    32 x    15 x    15              1612800       0.0%      0.0%    100.0%
 flops     5 x     5 x    15              1938000       0.0%      0.0%    100.0%
 flops    15 x    15 x     5              2232000       0.0%      0.0%    100.0%
 flops     5 x    15 x    15              2772000       0.0%      0.0%    100.0%
 flops    32 x    32 x    15              3440640       0.0%      0.0%    100.0%
 flops    15 x    32 x    32              3440640       0.0%      0.0%    100.0%
 flops    32 x    15 x    32              3440640       0.0%      0.0%    100.0%
 flops     5 x     5 x    32              4134400       0.0%      0.0%    100.0%
 flops    15 x    32 x     5              4761600       0.0%      0.0%    100.0%
 flops    32 x    15 x     5              4761600       0.0%      0.0%    100.0%
 flops    13 x     5 x    15              5335200       0.0%      0.0%    100.0%
 flops     5 x    13 x    15              5335200       0.0%      0.0%    100.0%
 flops     5 x    32 x    15              5760000       0.0%      0.0%    100.0%
 flops     5 x    15 x    32              5760000       0.0%      0.0%    100.0%
 flops    15 x    15 x    13              6528600       0.0%      0.0%    100.0%
 flops    32 x    32 x    32              7340032       0.0%      0.0%    100.0%
 flops    13 x    15 x    15              8108100       0.0%      0.0%    100.0%
 flops    32 x    32 x     5             10158080       0.0%      0.0%    100.0%
 flops    13 x     5 x    32             11381760       0.0%      0.0%    100.0%
 flops     5 x    13 x    32             11381760       0.0%      0.0%    100.0%
 flops     5 x    32 x    32             12615680       0.0%      0.0%    100.0%
 flops    15 x    32 x    13             13927680       0.0%      0.0%    100.0%
 flops    32 x    15 x    13             13927680       0.0%      0.0%    100.0%
 flops     5 x    15 x     5             14976000       0.0%      0.0%    100.0%
 flops    13 x    13 x    15             16472430       0.0%      0.0%    100.0%
 flops    13 x    32 x    15             16848000       0.0%      0.0%    100.0%
 flops    13 x    15 x    32             16848000       0.0%      0.0%    100.0%
 flops    32 x    32 x    13             29712384       0.0%      0.0%    100.0%
 flops     5 x    32 x     5             31948800       0.0%      0.0%    100.0%
 flops    13 x    13 x    32             35141184       0.0%      0.0%    100.0%
 flops    13 x    32 x    32             36900864       0.0%      0.0%    100.0%
 flops    13 x    15 x     5             43804800       0.0%      0.0%    100.0%
 flops     5 x    15 x    13             43804800       0.0%      0.0%    100.0%
 flops    13 x    32 x     5             93450240       0.0%      0.0%    100.0%
 flops     5 x    32 x    13             93450240       0.0%      0.0%    100.0%
 flops    13 x    15 x    13            128129040       0.0%      0.0%    100.0%
 flops    13 x    32 x    13            273341952       0.0%      0.0%    100.0%
 flops inhomo. stacks                           0       0.0%      0.0%      0.0%
 flops total                         1.028904E+09       0.0%      0.0%    100.0%
 flops max/rank                    195.044194E+06       0.0%      0.0%    100.0%
 matmuls inhomo. stacks                         0       0.0%      0.0%      0.0%
 matmuls total                             222610       0.0%      0.0%    100.0%
 number of processed stacks                 62006       0.0%      0.0%    100.0%
 average stack size                                     0.0       0.0       3.6
 marketing flops                     1.117856E+09
 -------------------------------------------------------------------------------
 # multiplications                            350
 max memory usage/rank               1.321214E+09
 # max total images/rank                        1
 # max 3D layers                                1
 # MPI messages exchanged                   33600
 MPI messages size (bytes):
  total size                       312.762304E+06
  min size                           0.000000E+00
  max size                          51.200000E+03
  average size                       9.308402E+03
 MPI breakdown and total messages size (bytes):
             size <=      128               18648                        0
       128 < size <=     8192                3600                 15911736
      8192 < size <=    32768                7608                112278864
     32768 < size <=   131072                3744                184571712
    131072 < size <=  4194304                   0                        0
   4194304 < size <= 16777216                   0                        0
  16777216 < size                               0                        0
 -------------------------------------------------------------------------------
 -                                                                             -
 -                      DBCSR MESSAGE PASSING PERFORMANCE                      -
 -                                                                             -
 -------------------------------------------------------------------------------
 ROUTINE             CALLS      AVE VOLUME [Bytes]
 MP_Bcast               41                     12.
 MP_Allreduce         1309                      9.
 MP_Alltoall          1407                   4184.
 MP_ISend             5592                   5645.
 MP_IRecv             5592                   4796.
 -------------------------------------------------------------------------------

 -------------------------------------------------------------------------------
 -                                                                             -
 -                                GRID STATISTICS                              -
 -                                                                             -
 -------------------------------------------------------------------------------
 LP    KERNEL             BACKEND                              COUNT     PERCENT
 3     collocate ortho    GPU                                 479731      24.11%
 3     integrate ortho    GPU                                 453190      22.77%
 4     integrate ortho    GPU                                 285942      14.37%
 4     collocate ortho    GPU                                 260110      13.07%
 2     collocate ortho    GPU                                 254143      12.77%
 2     integrate ortho    GPU                                 224250      11.27%
 5     integrate ortho    GPU                                  30602       1.54%
 0     collocate general  REF                                   1088       0.05%
 1     integrate general  REF                                   1088       0.05%
 -------------------------------------------------------------------------------

 MEMORY| Estimated peak process memory [MiB]                                1261

 -------------------------------------------------------------------------------
 -                                                                             -
 -                         MESSAGE PASSING PERFORMANCE                         -
 -                                                                             -
 -------------------------------------------------------------------------------

 ROUTINE             CALLS      AVE VOLUME [Bytes]
 MP_Group                8
 MP_Bcast              476                6634205.
 MP_Allreduce          872                 242090.
 MP_Sync                19
 MP_Alltoall           361               13012995.
 MP_ISendRecv         1530                 142560.
 MP_Wait              2134
 MP_comm_split           6
 MP_ISend              466                1123750.
 MP_IRecv              464                1127521.
 MP_Recv                 6                  30144.
 -------------------------------------------------------------------------------


 -------------------------------------------------------------------------------
 -                                                                             -
 -                           R E F E R E N C E S                               -
 -                                                                             -
 -------------------------------------------------------------------------------
 
 CP2K version 8.2, the CP2K developers group (2021).
 CP2K is freely available from https://www.cp2k.org/ .

 Kuehne,Thomas D.; Iannuzzi,Marcella; Del Ben,Mauro;
 Rybkin,Vladimir V.; Seewald,Patrick; Stein,Frederick; Laino,Teodoro;
 Khaliullin,Rustam Z.; Schuett,Ole; Schiffmann,Florian; Golze,Dorothea;
 Wilhelm,Jan; Chulkov,Sergey; Bani-Hashemian,Mohammad Hossein;
 Weber,Valery; Borstnik,Urban; Taillefumier,Mathieu;
 Jakobovits,Alice Shoshana; Lazzaro,Alfio; Pabst,Hans; Mueller,Tiziano;
 Schade,Robert; Guidon,Manuel; Andermatt,Samuel; Holmberg,Nico;
 Schenter,Gregory K.; Hehn,Anna; Bussy,Augustin; Belleflamme,Fabian;
 Tabacchi,Gloria; Gloess,Andreas; Lass,Michael; Bethune,Iain;
 Mundy,Christopher J.; Plessl,Christian; Watkins,Matt;
 VandeVondele,Joost; Krack,Matthias; Hutter,Juerg. 
 The Journal of Chemical Physics, 152 (19), (2020). 
 CP2K: An electronic structure and molecular dynamics software package -
 Quickstep: Efficient and accurate electronic structure calculations.
 https://doi.org/10.1063/5.0007045

 Schuett, Ole; Messmer, Peter; Hutter, Juerg; VandeVondele, Joost. 
 Electronic Structure Calculations on Graphics Processing Units, John
 Wiley & Sons, Ltd, 173-190 (2016). 
 GPU-Accelerated Sparse Matrix-Matrix Multiplication for
 Linear Scaling Density Functional Theory.
 https://doi.org/10.1002/9781118670712.ch8

 Heinecke, A; Henry, G; Hutchinson, M; Pabst, H. 
 Proceedings of Intl. Supercomputing Conference, 981-991 (2016). 
 LIBXSMM: Accelerating Small Matrix Multiplications
 by Runtime Code Generation.
 https://doi.org/10.1109/SC.2016.83

 Borstnik, U; VandeVondele, J; Weber, V; Hutter, J. 
 PARALLEL COMPUTING, 40 (5-6), 47-58 (2014). 
 Sparse matrix multiplication: The distributed block-compressed sparse
 row library.
 https://doi.org/10.1016/j.parco.2014.03.012

 Hutter, J; Iannuzzi, M; Schiffmann, F; VandeVondele, J. 
 WIREs Comput Mol Sci., 4 (1), 15-25 (2014). 
 CP2K: atomistic simulations of condensed matter systems.
 https://doi.org/10.1002/wcms.1159

 Marek, A; Blum, V; Johanni, R; Havu, V; Lang, B; Auckenthaler, T;
 Heinecke, A; Bungartz, H; Lederer, H. 
 Journal of Physics: Condensed Matter, 26 (21), (2014). 
 The ELPA library: scalable parallel eigenvalue solutions for
 electronic structure
 theory and computational science.
 https://doi.org/10.1088/0953-8984/26/21/213201

 VandeVondele, J; Hutter, J. 
 JOURNAL OF CHEMICAL PHYSICS, 127 (11), 114105 (2007). 
 Gaussian basis sets for accurate calculations on molecular systems in
 gas and condensed phases.
 https://doi.org/10.1063/1.2770708

 Kuhne, TD; Krack, M; Mohamed, FR; Parrinello, M. 
 PHYSICAL REVIEW LETTERS, 98 (6), 066401 (2007). 
 Efficient and accurate Car-Parrinello-like approach to
 Born-Oppenheimer molecular dynamics.
 https://doi.org/10.1103/PhysRevLett.98.066401

 Laino, T; Mohamed, F; Laio, A; Parrinello, M. 
 JOURNAL OF CHEMICAL THEORY AND COMPUTATION, 2 (5), 1370-1378 (2006). 
 An efficient linear-scaling electrostatic coupling for treating
 periodic boundary conditions in QM/MM simulations.
 https://doi.org/10.1021/ct6001169

 Laino, T; Mohamed, F; Laio, A; Parrinello, M. 
 JOURNAL OF CHEMICAL THEORY AND COMPUTATION, 1 (6), 1176-1184 (2005). 
 An efficient real space multigrid QM/MM electrostatic coupling.
 https://doi.org/10.1021/ct050123f

 Krack, M. 
 THEORETICAL CHEMISTRY ACCOUNTS, 114 (1-3), 145-152 (2005). 
 Pseudopotentials for H to Kr optimized for gradient-corrected
 exchange-correlation functionals.
 https://doi.org/10.1007/s00214-005-0655-y

 VandeVondele, J; Krack, M; Mohamed, F; Parrinello, M; Chassaing, T;
 Hutter, J. COMPUTER PHYSICS COMMUNICATIONS, 167 (2), 103-128 (2005). 
 QUICKSTEP: Fast and accurate density functional calculations using a
 mixed Gaussian and plane waves approach.
 https://doi.org/10.1016/j.cpc.2004.12.014

 Frigo, M; Johnson, SG. 
 PROCEEDINGS OF THE IEEE, 93 (2), 216-231 (2005). 
 The design and implementation of FFTW3.
 https://doi.org/10.1109/JPROC.2004.840301

 Kolafa, J. 
 JOURNAL OF COMPUTATIONAL CHEMISTRY, 25 (3), 335-342 (2004). 
 Time-reversible always stable predictor-corrector method for molecular dynamics of polarizable molecules.
 https://doi.org/10.1002/jcc.10385

 VandeVondele, J; Hutter, J. 
 JOURNAL OF CHEMICAL PHYSICS, 118 (10), 4365-4369 (2003). 
 An efficient orbital transformation method for electronic structure
 calculations.
 https://doi.org/10.1063/1.1543154

 Hartwigsen, C; Goedecker, S; Hutter, J. 
 PHYSICAL REVIEW B, 58 (7), 3641-3662 (1998). 
 Relativistic separable dual-space Gaussian pseudopotentials from H to Rn.
 https://doi.org/10.1103/PhysRevB.58.3641

 Lippert, G; Hutter, J; Parrinello, M. 
 MOLECULAR PHYSICS, 92 (3), 477-487 (1997). 
 A hybrid Gaussian and plane wave density functional scheme.
 https://doi.org/10.1080/002689797170220

 Goedecker, S; Teter, M; Hutter, J. 
 PHYSICAL REVIEW B, 54 (3), 1703-1710 (1996). 
 Separable dual-space Gaussian pseudopotentials.
 https://doi.org/10.1103/PhysRevB.54.1703

 ESSMANN, U; PERERA, L; BERKOWITZ, ML; DARDEN, T; LEE, H; PEDERSEN, LG. 
 JOURNAL OF CHEMICAL PHYSICS, 103 (19), 8577-8593 (1995). 
 A SMOOTH PARTICLE MESH EWALD METHOD.
 https://doi.org/10.1063/1.470117

 BLOCHL, PE. 
 JOURNAL OF CHEMICAL PHYSICS, 103 (17), 7422-7428 (1995). 
 ELECTROSTATIC DECOUPLING OF PERIODIC IMAGES OF PLANE-WAVE-EXPANDED
 DENSITIES AND DERIVED ATOMIC POINT CHARGES.
 https://doi.org/10.1063/1.470314

 BECKE, AD. PHYSICAL REVIEW A, 38 (6), 3098-3100 (1988). 
 DENSITY-FUNCTIONAL EXCHANGE-ENERGY APPROXIMATION WITH CORRECT
 ASYMPTOTIC-BEHAVIOR.
 https://doi.org/10.1103/PhysRevA.38.3098

 LEE, CT; YANG, WT; PARR, RG. 
 PHYSICAL REVIEW B, 37 (2), 785-789 (1988). 
 DEVELOPMENT OF THE COLLE-SALVETTI CORRELATION-ENERGY FORMULA INTO A
 FUNCTIONAL OF THE ELECTRON-DENSITY.
 https://doi.org/10.1103/PhysRevB.37.785


 -------------------------------------------------------------------------------
 -                                                                             -
 -                                T I M I N G                                  -
 -                                                                             -
 -------------------------------------------------------------------------------
 SUBROUTINE                       CALLS  ASD         SELF TIME        TOTAL TIME
                                MAXIMUM       AVERAGE  MAXIMUM  AVERAGE  MAXIMUM
 CP2K                                 1  1.0    0.021    0.031   21.851   21.851
 qs_mol_dyn_low                       1  2.0    0.003    0.003   19.747   20.802
 qs_forces                            2  3.5    0.000    0.000   11.909   11.909
 qs_energies                          2  4.5    0.000    0.000   11.382   11.383
 velocity_verlet                      1  3.0    0.000    0.000    8.442    8.477
 scf_env_do_scf                       2  5.5    0.000    0.000    8.160    8.162
 scf_env_do_scf_inner_loop           15  6.7    0.000    0.001    4.598    6.406
 dbcsr_multiply_generic             350 12.8    0.011    0.012    5.022    5.212
 multiply_cannon                    350 13.8    0.066    0.079    4.143    4.869
 multiply_cannon_loop               350 14.8    0.037    0.042    3.989    4.708
 multiply_cannon_multrec           1400 15.8    1.812    3.465    2.337    3.710
 qmmm_el_coupling                     2  3.5    0.000    0.000    3.393    3.437
 qmmm_elec_with_gaussian              2  4.5    0.003    0.003    3.392    3.437
 rebuild_ks_matrix                   17  8.4    0.000    0.000    3.313    3.330
 qs_ks_build_kohn_sham_matrix        17  9.4    0.002    0.002    3.313    3.330
 pw_transfer                        362 11.8    0.015    0.020    3.115    3.135
 fft_wrap_pw1pw2                    301 13.0    0.002    0.003    3.081    3.102
 init_scf_run                         2  5.5    0.000    0.000    3.015    3.015
 scf_env_initial_rho_setup            2  6.5    0.000    0.000    3.015    3.015
 qs_ks_update_qs_env                 17  7.7    0.000    0.000    2.878    2.893
 calculate_first_density_matrix       1  7.0    0.000    0.000    2.830    2.866
 mp_waitall_1                     18468 16.7    1.148    2.856    1.148    2.856
 multiply_cannon_metrocomm3        1400 15.8    0.002    0.002    0.830    2.659
 dbcsr_mm_accdrv_process            852 16.1    0.448    2.389    0.509    2.650
 qmmm_forces                          2  3.5    0.000    0.001    2.502    2.502
 fft_wrap_pw1pw2_200                191 14.2    0.001    0.001    2.473    2.498
 qmmm_forces_with_gaussian            2  4.5    0.004    0.005    2.411    2.454
 qmmm_elec_with_gaussian_low          2  5.5    0.000    0.000    2.167    2.223
 copy_dbcsr_to_fm                    28 10.2    0.000    0.000    1.900    2.201
 mp_alltoall_i22                    109 13.1    1.898    2.186    1.898    2.186
 dbcsr_desymmetrize_deep             28 11.2    0.001    0.001    1.883    2.184
 qmmm_elec_gaussian_low_G             2  6.5    2.052    2.106    2.052    2.106
 write_mo_set_to_restart             15  7.7    0.001    0.004    0.126    1.934
 write_mo_set_low                     2  8.5    0.000    0.000    0.124    1.928
 cp_fm_write_unformatted              2  9.5    0.124    1.928    0.124    1.928
 calculate_dm_sparse                 17  9.6    0.000    0.000    1.879    1.919
 cp_dbcsr_plus_fm_fm_t_native         4  8.5    0.000    0.000    1.844    1.879
 qs_vxc_create                       17 10.4    0.000    0.000    1.815    1.818
 xc_vxc_pw_create                    17 11.4    0.048    0.049    1.815    1.818
 init_scf_loop                        2  6.5    0.000    0.000    1.752    1.753
 pw_integral_ab                     883  7.0    1.671    1.725    1.709    1.748
 pw_cuda_r3dc1d_3d_ps               140 14.6    0.002    0.002    1.652    1.680
 mp_sum_l                          1321 11.4    0.693    1.577    0.693    1.577
 pw_cuda_c1dr3d_3d_ps               161 15.4    0.002    0.002    1.427    1.461
 prepare_preconditioner               2  7.5    0.000    0.000    1.330    1.332
 pw_restrict_s3                       6  5.5    0.173    0.188    1.214    1.258
 subspace_eigenvalues_ks_dbcsr        4  9.0    0.000    0.000    1.234    1.235
 qs_scf_new_mos                      15  7.7    0.000    0.000    1.173    1.189
 qs_scf_loop_do_ot                   15  8.7    0.000    0.000    1.173    1.189
 md_output                            1  3.0    0.000    0.000    0.104    1.159
 ot_scf_mini                         15  9.7    0.000    0.000    1.131    1.139
 write_restart                        1  4.0    0.069    1.104    0.102    1.136
 mp_max_l                            22  1.8    1.052    1.125    1.052    1.125
 qs_rho_update_rho                   17  7.8    0.000    0.000    0.999    1.039
 calculate_rho_elec                  17  8.8    0.032    0.033    0.999    1.039
 qmmm_force_with_gaussian_low         2  5.5    0.000    0.000    1.011    1.036
 qmmm_elec_with_gaussian:spline       2  5.5    0.000    0.000    0.972    1.016
 pw_prolongate_s3                     6  6.5    0.135    0.150    0.972    1.016
 qmmm_env_create                      1  2.0    0.032    0.032    1.012    1.015
 make_basis_sm                        2  9.0    0.000    0.000    0.999    0.999
 cp_dbcsr_sm_fm_multiply              6 10.3    0.000    0.000    0.998    0.998
 cp_dbcsr_sm_fm_multiply_core         6 11.3    0.000    0.000    0.920    0.985
 ot_mini                             15 10.7    0.000    0.000    0.947    0.960
 mp_alltoall_z22v                   301 17.0    0.804    0.954    0.804    0.954
 density_rs2pw                       17  9.8    0.001    0.001    0.846    0.901
 qmmm_forces_gaussian_low_G           2  6.5    0.849    0.870    0.849    0.870
 xc_rho_set_and_dset_create          17 12.4    0.057    0.058    0.861    0.869
 acc_transpose_blocks              1400 15.8    0.004    0.004    0.614    0.867
 acc_transpose_blocks_kernels      1400 16.8    0.006    0.011    0.598    0.849
 jit_kernel_transpose                 8 15.0    0.592    0.838    0.592    0.838
 fist_calc_energy_force               2  3.5    0.001    0.001    0.785    0.836
 sum_up_and_integrate                17 10.4    0.014    0.015    0.819    0.822
 qs_ot_get_derivative                15 11.7    0.000    0.000    0.808    0.817
 integrate_v_rspace                  17 11.4    0.000    0.000    0.806    0.808
 pw_cuda_cff                        140 15.6    0.627    0.789    0.627    0.789
 rs_pw_transfer                     148 11.6    0.001    0.002    0.656    0.706
 multiply_cannon_metrocomm1        1400 15.8    0.002    0.003    0.155    0.689
 mp_sum_dm                          178  4.9    0.584    0.657    0.584    0.657
 yz_to_x                            140 15.6    0.077    0.090    0.521    0.611
 fist_init                            1  3.0    0.005    0.008    0.608    0.610
 x_to_yz                            161 16.4    0.164    0.193    0.524    0.604
 potential_pw2rs                     17 12.4    0.002    0.002    0.594    0.596
 mp_sum_dm3                          13  5.2    0.527    0.595    0.527    0.595
 md_write_output                      2  3.5    0.002    0.031    0.036    0.577
 pw_cuda_sf                         161 16.4    0.526    0.569    0.526    0.569
 update_particle_set                  2  4.0    0.000    0.000    0.520    0.555
 write_trajectory                     8  4.5    0.000    0.002    0.034    0.546
 write_particle_coordinates           2  5.5    0.034    0.543    0.034    0.543
 pw_cuda_fg                         140 15.6    0.489    0.516    0.489    0.516
 fft_wrap_pw1pw2_10                  42 12.8    0.000    0.000    0.500    0.500
 init_cube_info                       8  5.5    0.490    0.498    0.490    0.498
 spme_evaluate                        2  4.5    0.004    0.005    0.498    0.498
 qs_ks_qmmm_create                    1  3.0    0.000    0.000    0.488    0.497
 jit_kernel_multiply                  4 15.2    0.061    0.452    0.061    0.452
 rdparm_amber_8                       2  6.5    0.331    0.336    0.449    0.449
 qs_ks_update_qs_env_forces           2  4.5    0.000    0.000    0.436    0.438
 -------------------------------------------------------------------------------

 The number of warnings for this run is : 0
 
 -------------------------------------------------------------------------------
  **** **** ******  **  PROGRAM ENDED AT                 2021-08-17 17:57:28.471
 ***** ** ***  *** **   PROGRAM RAN ON                                    r2i6n0
 **    ****   ******    PROGRAM RAN BY                                    hollyj
 ***** **    ** ** **   PROGRAM PROCESS ID                                 40591
  **** **  *******  **  PROGRAM STOPPED IN /lustre/home/w68/hollyj/CP2K/Cirrus/G
                                           PU/cp2kMD/MQAE/1STEPS/4NODES/36CPN/10
                                           THREADS
                                                                                                                                                                                                                                                                                                                                                                                                                                                                                                                                                                                                                                                                                                                                                                                                                                                                                                                                                                                                                                                                                                                                                                                                                                                                                                                                                                                                                                                                                                                                                                                                                                                                                                                                                                                                                                                                                                                                                                                                                                                                                                                                                                                                                                                                                                                                                                                                                                                                                                                                                                                                                                                                                                                                                                                                                                                                                                                                                                                                                                                                                                                                                                                                                                                                                                                                                                                                                                                                                                                                                                                                                                                                                                                                                                                                                                                                                                                                                                                                                                                                                                                                                                                                                                                                                                                                                                                                                                                                                                                                                                                                                                                                                                                                                                                                                                                                                                                                                                                                                                                                                                                                                                                                                                                                                                                                                                                                                                                                                                                                                                                                                                                                                                                                                                                                                                                                                                                                                                                                                                                                                                                                                                                                                                                                                                                                                                                                                                                                                                                                                                                                                                                                                                                                                                                                                                                                                                                                                                                                                                                                                                                                                                                                                                                                                                                                                                                                                                                                                                                                                                                                                                                                                                                                                                                                                                                                                                                                                                                                                                                                                                                                                                                                                                                                                                                                                                                                                                                                                                                                                                                                                                                                                                                                                                                                                                                                                                                                                                                                                                                                                                                                                                                                                                                                                                                                                                                                                                                                                                                                                                                                                                                                                                                                                                                                                                                                                                                                                                                                                                                                                                                                                                                                                                                                                                                                                                                                                                                                                                                                                                                                                                                                                                                                                                                                                                                                                                                                                                                                                                                                                                                                                                                                                                                                                                                                                                                                                                                                                                                                                                                                                                                                                                                                                                                                                                                                                                                                                                                                                                                                                                                                                                                                                                                                                                                                                                                                                                                                                                                                                                                                                                                                                                                                                                                                                                                                                                                                                                                                                                                                                                                                                                                                                                                                                                                                                                                                                                                                                                                                                                                                                                                                                                                                                                                                                                                                                                                                                                                                                                                                                                                                                                                                                                                                                                                                                                                                                                                                                                                                                                                                                                                                                                                                                                                                                                                                                                                                                                                                                                                                                                                                                                                                                                                                                                                                                                                                                                                                                                                                                                                                                                                                                                                                                                                                                                                                                                                                                                                                                                                                                                                                                                                                                                                                                                                                                                                                                                                                                                                                                                                                                                                                                                                                                                                                                                                                                                                                                                                                                                                                                                                                                                                                                                                                                                                                                                                                                                                                                                                                                                                                                                                                                                                                                                                                                                                                                                                                                                                                                                                                                                                                                                                                                                                                                                                                                                                                                                                                                                                                                                                                                                                                                                                                                                                                                                                                                                                                                                                                                                                                                                                                                                                                                                                                                                                                                                                                                                                                                                                                                                                                                                                                                                                                                                                                                                                                                                                                                                                                                                                                                                                                                                                                                                                                                                                                                                                                                                                                                                                                                                                                                                                 