 DBCSR| CPU Multiplication driver                                           XSMM
 DBCSR| Multrec recursion limit                                              512
 DBCSR| Multiplication stack size                                          30000
 DBCSR| Maximum elements for images                                    UNLIMITED
 DBCSR| Multiplicative factor virtual images                                   1
 DBCSR| Use multiplication densification                                       F
 DBCSR| Multiplication size stacks                                             3
 DBCSR| Use memory pool for CPU allocation                                     F
 DBCSR| Number of 3D layers                                               SINGLE
 DBCSR| Use MPI memory allocation                                              F
 DBCSR| Use RMA algorithm                                                      F
 DBCSR| Use Communication thread                                               T
 DBCSR| Communication thread load                                             53
 DBCSR| MPI: My node id                                                        0
 DBCSR| MPI: Number of nodes                                                  16
 DBCSR| OMP: Current number of threads                                        10
 DBCSR| OMP: Max number of threads                                            10
 DBCSR| ACC: Number of devices/node                                            4
 DBCSR| ACC: Number of priority stack-buffers                                 40
 DBCSR| ACC: Number of posterior stack-buffers                                80
 DBCSR| ACC: Number of priority streams                                        4
 DBCSR| ACC: Number of posterior streams                                       4
 DBCSR| ACC: Avoid driver after busy                                           F
 DBCSR| ACC: Process inhomogeneous stacks                                      T
 DBCSR| ACC: Min. flop for processing                                          0
 DBCSR| ACC: Min. flop for sorting                                          4000
 DBCSR| ACC: Number of binning bins                                         4096
 DBCSR| ACC: Size of binning bins                                             16
 DBCSR| Split modifier for TAS multiplication algorithm                  1.0E+00


  **** **** ******  **  PROGRAM STARTED AT               2021-07-26 15:57:33.322
 ***** ** ***  *** **   PROGRAM STARTED ON                                r2i7n1
 **    ****   ******    PROGRAM STARTED BY                                hollyj
 ***** **    ** ** **   PROGRAM PROCESS ID                                 22331
  **** **  *******  **  PROGRAM STARTED IN /lustre/home/w68/hollyj/CP2K/Cirrus/G
                                           PU/cp2kMD/MQAE-B3LYP/1STEPS/4NODES/36
                                           CPN/10THREADS

 CP2K| version string:                                          CP2K version 8.2
 CP2K| source code revision number:                                  git:310b7ab
 CP2K| cp2kflags: omp libint fftw3 libxc elpa parallel mpi3 scalapack cosma pw_c
 CP2K|            uda xsmm cuda_profiling dbcsr_acc spglib mkl grid_cuda
 CP2K| is freely available from                            https://www.cp2k.org/
 CP2K| Program compiled at                          Thu Jul 22 18:07:58 BST 2021
 CP2K| Program compiled on                                                r2i5n7
 CP2K| Program compiled for                                           Cirrus-gcc
 CP2K| Data directory path       /lustre/home/w68/hollyj/CP2K/v8.2/cp2k-8.2/data
 CP2K| Input file name                                             mqae-cp2k.inp

 GLOBAL| Force Environment number                                              1
 GLOBAL| Basis set file name                                     EMSL_BASIS_SETS
 GLOBAL| Potential file name                                           POTENTIAL
 GLOBAL| MM Potential file name                                     MM_POTENTIAL
 GLOBAL| Coordinate file name                                           mqae.pdb
 GLOBAL| Method name                                                        CP2K
 GLOBAL| Project name                                                 MQAE-B3LYP
 GLOBAL| Run type                                                             MD
 GLOBAL| FFT library                                                       FFTW3
 GLOBAL| Diagonalization library                                            ELPA
 GLOBAL| Minimum number of eigenvectors for ELPA usage                        16
 GLOBAL| Orthonormality check for eigenvectors                          DISABLED
 GLOBAL| Matrix multiplication library                                     COSMA
 GLOBAL| All-to-all communication in single precision                          F
 GLOBAL| FFTs using library dependent lengths                                  F
 GLOBAL| Grid backend                                                       AUTO
 GLOBAL| Global print level                                                  LOW
 GLOBAL| MPI I/O enabled                                                       T
 GLOBAL| Total number of message passing processes                            16
 GLOBAL| Number of threads for this process                                   10
 GLOBAL| This output is from process                                           0
 GLOBAL| CPU model name                 Intel(R) Xeon(R) Gold 6248 CPU @ 2.50GHz
 GLOBAL| CPUID                                                              1003

 MEMORY| system memory details [Kb]
 MEMORY|                        rank 0           min           max       average
 MEMORY| MemTotal            394535408     394535408     394535408     394535408
 MEMORY| MemFree             387584364     387056208     387584364     387205375
 MEMORY| Buffers                     0             0             0             0
 MEMORY| Cached                 917212        891696        930284        917026
 MEMORY| Slab                   928752        928752        985480        964637
 MEMORY| SReclaimable           175064        174756        178896        176826
 MEMORY| MemLikelyFree       388676640     388126492     388676640     388299227



                      ************* ******** ***********   
                     ************* **********************  
                     ****     **** ****      ***********   
                     ******** ****  *******     ****       
                     *******  ****   *******   ****        
                     ****     ****       ****  ****        
                     ****     **** **********  ****        
                      ****     **** ********    ****       
                     FRONTIERS IN SIMULATION TECHNOLOGY    
                                                           
                        C.J. Mundy, S. Balasubramanian,    
                     Ken Bagchi, J. Hutter, Ari Seitsonen  
                      IFW Kuo, T. Laino, J. VandeVondele   
                                 Version 1.0               

                                                           


 EWALD| Summation is done by:                                               SPME
 EWALD| Alpha parameter [       ANGSTROM^-1]                              0.4000
 EWALD| Real Space Cutoff [          ANGSTROM]                            8.4348
 EWALD| G-space max. Miller index                         80        80        80
 EWALD| Spline interpolation order                                             6

 FORCEFIELD| WARNING: A non Critical ForceField parameter is missing! CP2K GOES!
 FORCEFIELD| Non critical parameters are:Urey-Bradley,Torsions,Impropers, Opbends and 1-4
 FORCEFIELD| All missing parameters will not contribute to the potential energy!
 FORCEFIELD| Activate the print key FF_INFO to have a list of missing parameters

 CHARGE_INFO| Total Charge of the Classical System:                     0.000000

 SPLINE_INFO| Generating 465 splines for NONBONDED14 interactions 
              Due to 30 different atomic kinds
  ...46  ...92  ...138  ...184  ...230  ...276  ...322  ...368  ...414  ...460
 SPLINE_INFO| Number of unique splines computed:            22
 SPLINE_INFO| Done

 SPLINE_INFO| Generating 465 splines for NONBONDED interactions 
              Due to 30 different atomic kinds
  ...46  ...92  ...138  ...184  ...230  ...276  ...322  ...368  ...414  ...460
 SPLINE_INFO| Number of unique splines computed:            22
 SPLINE_INFO| Done

 *******************************************************************************
 *******************************************************************************
 **                                                                           **
 **     #####                         ##              ##                      **
 **    ##   ##            ##          ##              ##                      **
 **   ##     ##                       ##            ######                    **
 **   ##     ##  ##   ##  ##   #####  ##  ##   ####   ##    #####    #####    **
 **   ##     ##  ##   ##  ##  ##      ## ##   ##      ##   ##   ##  ##   ##   **
 **   ##  ## ##  ##   ##  ##  ##      ####     ###    ##   ######   ######    **
 **    ##  ###   ##   ##  ##  ##      ## ##      ##   ##   ##       ##        **
 **     #######   #####   ##   #####  ##  ##  ####    ##    #####   ##        **
 **           ##                                                    ##        **
 **                                                                           **
 **                                                ... make the atoms dance   **
 **                                                                           **
 **            Copyright (C) by CP2K developers group (2000-2021)             **
 **                      J. Chem. Phys. 152, 194103 (2020)                    **
 **                                                                           **
 *******************************************************************************


 TOTAL NUMBERS AND MAXIMUM NUMBERS

  Total number of            - Atomic kinds:                                   4
                             - Atoms:                                         34
                             - Shell sets:                                   120
                             - Shells:                                       156
                             - Primitive Cartesian functions:                278
                             - Cartesian basis functions:                    350
                             - Spherical basis functions:                    332

  Maximum angular momentum of- Orbital basis functions:                        2
                             - Local part of the GTH pseudopotential:          2
                             - Non-local part of the GTH pseudopotential:      0


 SCF PARAMETERS         Density guess:                                   RESTART
                        --------------------------------------------------------
                        max_scf:                                              20
                        max_scf_history:                                       0
                        max_diis:                                              4
                        --------------------------------------------------------
                        eps_scf:                                        1.00E-06
                        eps_scf_history:                                0.00E+00
                        eps_diis:                                       1.00E-01
                        eps_eigval:                                     1.00E-05
                        --------------------------------------------------------
                        level_shift [a.u.]:                                 0.00
                        --------------------------------------------------------
                        Outer loop SCF in use 
                        No variables optimised in outer loop
                        eps_scf                                         1.00E-06
                        max_scf                                               20
                        No outer loop optimization
                        step_size                                       5.00E-01

 *******************************************************************************
 *******************************************************************************
 **                                                                           **
 **             #######  ##     ## ##     ## ##     ##                        **
 **            ##     ## ###   ### ###   ### ###   ###                        **
 **            ##     ## #### #### #### #### #### ####                        **
 **            ##     ## ## ### ## ## ### ## ## ### ##                        **
 **            ##  ## ## ##     ## ##     ## ##     ##                        **
 **            ##    ##  ##     ## ##     ## ##     ##  T.Laino and F.Mohamed **
 **             ##### ## ##     ## ##     ## ##     ##  2005 - 2015           **
 **                                                                           **
 **                                                     Calculation Started.. **
 *******************************************************************************
 *******************************************************************************

 MD_PAR| Molecular dynamics protocol (MD input parameters)
 MD_PAR| Ensemble type                                                       NVE
 MD_PAR| Number of time steps                                                  1
 MD_PAR| Time step [fs]                                                 1.000000
 MD_PAR| Temperature [K]                                              300.000000
 MD_PAR| Temperature tolerance [K]                                      0.000000
 MD_PAR| Print MD information every                                    1 step(s)
 MD_PAR| File type   Print frequency [steps]                          File names
 MD_PAR| Coordinates          1                             MQAE-B3LYP-pos-1.xyz
 MD_PAR| Velocities           1                             MQAE-B3LYP-vel-1.xyz
 MD_PAR| Energies             1                                MQAE-B3LYP-1.ener
 MD_PAR| Dump                20                             MQAE-B3LYP-1.restart

 ROT| Rotational analysis information
 ROT| Principal axes and moments of inertia [a.u.]
 ROT|                           1                   2                   3
 ROT| Eigenvalues      8.77944938721E+03   1.29891690960E+07   1.29979485454E+07
 ROT|      x             -0.558379687797      0.617732459818     -0.553731642894
 ROT|      y             -0.569867814832     -0.770688439612     -0.285114016960
 ROT|      z             -0.602878758851      0.156351965563      0.782362617327
 ROT| Number of rotovibrational vectors                                        6

 DOF| Calculation of degrees of freedom
 DOF| Number of atoms                                                       7186
 DOF| Number of intramolecular constraints                                     0
 DOF| Number of intermolecular constraints                                     0
 DOF| Invariants (translations + rotations)                                    3
 DOF| Degrees of freedom                                                   21555

 DOF| Restraints information
 DOF| Number of intramolecular restraints                                      0
 DOF| Number of intermolecular restraints                                      0

 MD_VEL| Velocities initialization
 MD_VEL| Initial temperature [K]                                      300.000000
 MD_VEL| COM velocity            -0.0000000000     0.0000000000    -0.0000000000

  Translating the system in order to center the QM fragment in the QM box.

 Number of electrons:                                                         94
 Number of occupied orbitals:                                                 47
 Number of molecular orbitals:                                                47

 Number of orbital functions:                                                332
 Number of independent orbital functions:                                    332

 Extrapolation method: initial_guess


 SCF WAVEFUNCTION OPTIMIZATION

  ----------------------------------- OT ---------------------------------------
  Minimizer      : DIIS                : direct inversion
                                         in the iterative subspace
                                         using   7 DIIS vectors
                                         safer DIIS on
  Preconditioner : FULL_ALL            : diagonalization, state selective
  Precond_solver : DEFAULT
  stepsize       :    0.15000000                  energy_gap     :    0.08000000
  eps_taylor     :   0.10000E-15                  max_taylor     :             4
  ----------------------------------- OT ---------------------------------------

  Step     Update method      Time    Convergence         Total energy    Change
  ------------------------------------------------------------------------------
  Decoupling Energy:                                               0.0724473675
  Recoupling Energy:                                              -0.0186060468
     1 OT DIIS     0.15E+00    5.5     0.00000025      -146.5978854948 -1.47E+02

  *** SCF run converged in     1 steps ***


  Electronic density on regular grids:        -94.0000117893       -0.0000117893
  Core density on regular grids:               94.9999999999       -0.0000000001
  Total charge density on r-space grids:        0.9999882107
  Total charge density g-space grids:           0.9999882107

  Overlap energy of the core charge distribution:               0.00000599177744
  Self energy of the core charge distribution:               -359.57183942644110
  Core Hamiltonian energy:                                    110.60578196111658
  Hartree energy:                                             145.61977572058532
  Exchange-correlation energy:                                -35.09004203380520
  Hartree-Fock Exchange energy:                                -7.83563029227318
  QM/MM Electrostatic energy:                                  -0.32593741578517

  Total energy:                                              -146.59788549482536

  outer SCF iter =    1 RMS gradient =   0.25E-06 energy =       -146.5978854948
  outer SCF loop converged in   1 iterations or    1 steps

  Decoupling Energy:                                               0.0724473842
  Recoupling Energy:                                              -0.0186060464

 ENERGY| Total FORCE_EVAL ( QMMM ) energy [a.u.]:           -125.274785505651266

 MD_INI| MD initialization
 MD_INI| Potential energy [hartree]                          -0.125274785506E+03
 MD_INI| Total kinetic energy [hartree]                       0.102391057087E+02
 MD_INI| QM kinetic energy [hartree]                          0.538313910515E-01
 MD_INI| Total temperature [K]                                        300.000000
 MD_INI| QM temperature [K]                                           333.305658
 MD_INI| Cell volume [bohr^3]                                 4.911308927827E+05
 MD_INI| Cell volume [ang^3]                                  7.277808868775E+04
 MD_INI| Cell lengths [bohr]      7.88979558E+01  7.88979558E+01  7.88979558E+01
 MD_INI| Cell lengths [ang]       4.17510000E+01  4.17510000E+01  4.17510000E+01
 MD_INI| Cell angles [deg]        9.00000000E+01  9.00000000E+01  9.00000000E+01

  Translating the system in order to center the QM fragment in the QM box.

 Number of electrons:                                                         94
 Number of occupied orbitals:                                                 47
 Number of molecular orbitals:                                                47

 Number of orbital functions:                                                332
 Number of independent orbital functions:                                    332

 Extrapolation method: ASPC


 SCF WAVEFUNCTION OPTIMIZATION

  ----------------------------------- OT ---------------------------------------
  Minimizer      : DIIS                : direct inversion
                                         in the iterative subspace
                                         using   7 DIIS vectors
                                         safer DIIS on
  Preconditioner : FULL_ALL            : diagonalization, state selective
  Precond_solver : DEFAULT
  stepsize       :    0.15000000                  energy_gap     :    0.08000000
  eps_taylor     :   0.10000E-15                  max_taylor     :             4
  ----------------------------------- OT ---------------------------------------

  Step     Update method      Time    Convergence         Total energy    Change
  ------------------------------------------------------------------------------
  Decoupling Energy:                                               0.0724407826
  Recoupling Energy:                                              -0.0186065708
     1 OT DIIS     0.15E+00    1.6     0.00263037      -146.4802501136 -1.46E+02
  Decoupling Energy:                                               0.0723365315
  Recoupling Energy:                                              -0.0186021826
     2 OT DIIS     0.15E+00    0.4     0.00099624      -146.4905838941 -1.03E-02
  Decoupling Energy:                                               0.0723590125
  Recoupling Energy:                                              -0.0186027231
     3 OT DIIS     0.15E+00    0.4     0.00037681      -146.4922803081 -1.70E-03
  Decoupling Energy:                                               0.0723311219
  Recoupling Energy:                                              -0.0186016346
     4 OT DIIS     0.15E+00    0.4     0.00013916      -146.4924802546 -2.00E-04
  Decoupling Energy:                                               0.0723461377
  Recoupling Energy:                                              -0.0186022886
     5 OT DIIS     0.15E+00    0.4     0.00005108      -146.4924955753 -1.53E-05
  Decoupling Energy:                                               0.0723413020
  Recoupling Energy:                                              -0.0186020528
     6 OT DIIS     0.15E+00    0.4     0.00001941      -146.4924979307 -2.36E-06
  Decoupling Energy:                                               0.0723421382
  Recoupling Energy:                                              -0.0186021340
     7 OT DIIS     0.15E+00    0.4     0.00000594      -146.4924982502 -3.19E-07
  Decoupling Energy:                                               0.0723424422
  Recoupling Energy:                                              -0.0186021302
     8 OT DIIS     0.15E+00    0.4     0.00000286      -146.4924982937 -4.35E-08
  Decoupling Energy:                                               0.0723422725
  Recoupling Energy:                                              -0.0186021330
     9 OT DIIS     0.15E+00    0.4     0.00000098      -146.4924983001 -6.41E-09

  *** SCF run converged in     9 steps ***


  Electronic density on regular grids:        -93.9999622185        0.0000377815
  Core density on regular grids:               94.9999999999       -0.0000000001
  Total charge density on r-space grids:        1.0000377814
  Total charge density g-space grids:           1.0000377814

  Overlap energy of the core charge distribution:               0.00003300554688
  Self energy of the core charge distribution:               -359.57183942644110
  Core Hamiltonian energy:                                    110.79920978137260
  Hartree energy:                                             145.51960219154643
  Exchange-correlation energy:                                -35.13733571634338
  Hartree-Fock Exchange energy:                                -7.84763450980455
  QM/MM Electrostatic energy:                                  -0.25453362598947

  Total energy:                                              -146.49249830011260

  outer SCF iter =    1 RMS gradient =   0.98E-06 energy =       -146.4924983001
  outer SCF loop converged in   1 iterations or    9 steps

  Decoupling Energy:                                               0.0723422902
  Recoupling Energy:                                              -0.0186021301

 ENERGY| Total FORCE_EVAL ( QMMM ) energy [a.u.]:           -154.709368851979463

 MD| ***************************************************************************
 MD| Step number                                                               1
 MD| Time [fs]                                                          1.000000
 MD| Conserved quantity [hartree]                            -0.123704339461E+03
 MD| ---------------------------------------------------------------------------
 MD|                                          Instantaneous             Averages
 MD| CPU time per MD step [s]                     24.141564            24.141564
 MD| Energy drift per atom [K]          -0.380927213092E+03   0.000000000000E+00
 MD| Potential energy [hartree]         -0.154709368852E+03  -0.154709368852E+03
 MD| Total kinetic energy [hartree]      0.310050293907E+02   0.310050293907E+02
 MD| QM kinetic energy [hartree]         0.223316761228E+00   0.223316761228E+00
 MD| Total temperature [K]                       908.429806           908.429806
 MD| QM temperature [K]                         1382.701405          1382.701405
 MD| ***************************************************************************

 -------------------------------------------------------------------------------
 -                                                                             -
 -                                DBCSR STATISTICS                             -
 -                                                                             -
 -------------------------------------------------------------------------------
 COUNTER                                    TOTAL       BLAS       SMM       ACC
 flops    15 x    15 x    15               621000       0.0%      0.0%    100.0%
 flops    15 x    15 x    32              1324800       0.0%      0.0%    100.0%
 flops    15 x    32 x    15              1324800       0.0%      0.0%    100.0%
 flops    32 x    15 x    15              1324800       0.0%      0.0%    100.0%
 flops     5 x     5 x    15              1428000       0.0%      0.0%    100.0%
 flops    15 x    15 x     5              1512000       0.0%      0.0%    100.0%
 flops     5 x    15 x    15              1872000       0.0%      0.0%    100.0%
 flops    32 x    32 x    15              2826240       0.0%      0.0%    100.0%
 flops    15 x    32 x    32              2826240       0.0%      0.0%    100.0%
 flops    32 x    15 x    32              2826240       0.0%      0.0%    100.0%
 flops     5 x     5 x    32              3046400       0.0%      0.0%    100.0%
 flops    15 x    32 x     5              3225600       0.0%      0.0%    100.0%
 flops    32 x    15 x     5              3225600       0.0%      0.0%    100.0%
 flops     5 x    32 x    15              3840000       0.0%      0.0%    100.0%
 flops     5 x    15 x    32              3840000       0.0%      0.0%    100.0%
 flops    14 x     5 x    15              4233600       0.0%      0.0%    100.0%
 flops     5 x    14 x    15              4233600       0.0%      0.0%    100.0%
 flops    15 x    15 x    14              4762800       0.0%      0.0%    100.0%
 flops    14 x    15 x    15              5896800       0.0%      0.0%    100.0%
 flops    32 x    32 x    32              6029312       0.0%      0.0%    100.0%
 flops    32 x    32 x     5              6881280       0.0%      0.0%    100.0%
 flops     5 x    32 x    32              8519680       0.0%      0.0%    100.0%
 flops    14 x     5 x    32              9031680       0.0%      0.0%    100.0%
 flops     5 x    14 x    32              9031680       0.0%      0.0%    100.0%
 flops    15 x    32 x    14             10160640       0.0%      0.0%    100.0%
 flops    32 x    15 x    14             10160640       0.0%      0.0%    100.0%
 flops     5 x    15 x     5             11136000       0.0%      0.0%    100.0%
 flops    14 x    32 x    15             12096000       0.0%      0.0%    100.0%
 flops    14 x    15 x    32             12096000       0.0%      0.0%    100.0%
 flops    14 x    14 x    15             14076720       0.0%      0.0%    100.0%
 flops    32 x    32 x    14             21676032       0.0%      0.0%    100.0%
 flops     5 x    32 x     5             23756800       0.0%      0.0%    100.0%
 flops    14 x    32 x    32             26836992       0.0%      0.0%    100.0%
 flops    14 x    14 x    32             30030336       0.0%      0.0%    100.0%
 flops    14 x    15 x     5             35078400       0.0%      0.0%    100.0%
 flops     5 x    15 x    14             35078400       0.0%      0.0%    100.0%
 flops    14 x    32 x     5             74833920       0.0%      0.0%    100.0%
 flops     5 x    32 x    14             74833920       0.0%      0.0%    100.0%
 flops    14 x    15 x    14            110496960       0.0%      0.0%    100.0%
 flops    14 x    32 x    14            235726848       0.0%      0.0%    100.0%
 flops inhomo. stacks                           0       0.0%      0.0%      0.0%
 flops total                       831.758760E+06       0.0%      0.0%    100.0%
 flops max/rank                    154.665404E+06       0.0%      0.0%    100.0%
 matmuls inhomo. stacks                         0       0.0%      0.0%      0.0%
 matmuls total                             164140       0.0%      0.0%    100.0%
 number of processed stacks                 45276       0.0%      0.0%    100.0%
 average stack size                                     0.0       0.0       3.6
 marketing flops                   905.908480E+06
 -------------------------------------------------------------------------------
 # multiplications                            260
 max memory usage/rank               2.228408E+09
 # max total images/rank                        1
 # max 3D layers                                1
 # MPI messages exchanged                   24960
 MPI messages size (bytes):
  total size                       249.035616E+06
  min size                           0.000000E+00
  max size                          57.800000E+03
  average size                       9.977389E+03
 MPI breakdown and total messages size (bytes):
             size <=      128               14028                        0
       128 < size <=     8192                2820                 12465696
      8192 < size <=    32768                5328                 83138112
     32768 < size <=   131072                2784                153431808
    131072 < size <=  4194304                   0                        0
   4194304 < size <= 16777216                   0                        0
  16777216 < size                               0                        0
 -------------------------------------------------------------------------------
 -                                                                             -
 -                      DBCSR MESSAGE PASSING PERFORMANCE                      -
 -                                                                             -
 -------------------------------------------------------------------------------
 ROUTINE             CALLS      AVE VOLUME [Bytes]
 MP_Bcast               41                     12.
 MP_Allreduce          998                     10.
 MP_Alltoall          1157                   4903.
 MP_ISend             4152                   5912.
 MP_IRecv             4152                   5044.
 -------------------------------------------------------------------------------

 -------------------------------------------------------------------------------
 -                                                                             -
 -                                GRID STATISTICS                              -
 -                                                                             -
 -------------------------------------------------------------------------------
 LP    KERNEL             BACKEND                              COUNT     PERCENT
 1     collocate ortho    GPU                                  80138      21.34%
 1     integrate ortho    GPU                                  73914      19.68%
 2     integrate ortho    GPU                                  54224      14.44%
 2     collocate ortho    GPU                                  49046      13.06%
 0     collocate ortho    GPU                                  42762      11.39%
 0     integrate ortho    GPU                                  35633       9.49%
 3     integrate ortho    GPU                                  19173       5.10%
 3     collocate ortho    GPU                                  13196       3.51%
 4     integrate ortho    GPU                                   3498       0.93%
 4     collocate ortho    GPU                                   1560       0.42%
 0     collocate general  REF                                   1088       0.29%
 1     integrate general  REF                                   1088       0.29%
 5     integrate ortho    GPU                                    260       0.07%
 -------------------------------------------------------------------------------

 MEMORY| Estimated peak process memory [MiB]                                2126

 -------------------------------------------------------------------------------
 -                                                                             -
 -                         MESSAGE PASSING PERFORMANCE                         -
 -                                                                             -
 -------------------------------------------------------------------------------

 ROUTINE             CALLS      AVE VOLUME [Bytes]
 MP_Group                8
 MP_Bcast              486                6553942.
 MP_Allreduce          822                 256809.
 MP_Sync                97
 MP_Alltoall           266               12579014.
 MP_ISendRecv         1590                 106040.
 MP_Wait              2084
 MP_comm_split           6
 MP_ISend              386                 966237.
 MP_IRecv              384                 969973.
 MP_Recv                 6                  31872.
 -------------------------------------------------------------------------------


 -------------------------------------------------------------------------------
 -                                                                             -
 -                           R E F E R E N C E S                               -
 -                                                                             -
 -------------------------------------------------------------------------------
 
 CP2K version 8.2, the CP2K developers group (2021).
 CP2K is freely available from https://www.cp2k.org/ .

 Kuehne,Thomas D.; Iannuzzi,Marcella; Del Ben,Mauro;
 Rybkin,Vladimir V.; Seewald,Patrick; Stein,Frederick; Laino,Teodoro;
 Khaliullin,Rustam Z.; Schuett,Ole; Schiffmann,Florian; Golze,Dorothea;
 Wilhelm,Jan; Chulkov,Sergey; Bani-Hashemian,Mohammad Hossein;
 Weber,Valery; Borstnik,Urban; Taillefumier,Mathieu;
 Jakobovits,Alice Shoshana; Lazzaro,Alfio; Pabst,Hans; Mueller,Tiziano;
 Schade,Robert; Guidon,Manuel; Andermatt,Samuel; Holmberg,Nico;
 Schenter,Gregory K.; Hehn,Anna; Bussy,Augustin; Belleflamme,Fabian;
 Tabacchi,Gloria; Gloess,Andreas; Lass,Michael; Bethune,Iain;
 Mundy,Christopher J.; Plessl,Christian; Watkins,Matt;
 VandeVondele,Joost; Krack,Matthias; Hutter,Juerg. 
 The Journal of Chemical Physics, 152 (19), (2020). 
 CP2K: An electronic structure and molecular dynamics software package -
 Quickstep: Efficient and accurate electronic structure calculations.
 https://doi.org/10.1063/5.0007045

 Schuett, Ole; Messmer, Peter; Hutter, Juerg; VandeVondele, Joost. 
 Electronic Structure Calculations on Graphics Processing Units, John
 Wiley & Sons, Ltd, 173-190 (2016). 
 GPU-Accelerated Sparse Matrix-Matrix Multiplication for
 Linear Scaling Density Functional Theory.
 https://doi.org/10.1002/9781118670712.ch8

 Heinecke, A; Henry, G; Hutchinson, M; Pabst, H. 
 Proceedings of Intl. Supercomputing Conference, 981-991 (2016). 
 LIBXSMM: Accelerating Small Matrix Multiplications
 by Runtime Code Generation.
 https://doi.org/10.1109/SC.2016.83

 Borstnik, U; VandeVondele, J; Weber, V; Hutter, J. 
 PARALLEL COMPUTING, 40 (5-6), 47-58 (2014). 
 Sparse matrix multiplication: The distributed block-compressed sparse
 row library.
 https://doi.org/10.1016/j.parco.2014.03.012

 Hutter, J; Iannuzzi, M; Schiffmann, F; VandeVondele, J. 
 WIREs Comput Mol Sci., 4 (1), 15-25 (2014). 
 CP2K: atomistic simulations of condensed matter systems.
 https://doi.org/10.1002/wcms.1159

 Marek, A; Blum, V; Johanni, R; Havu, V; Lang, B; Auckenthaler, T;
 Heinecke, A; Bungartz, H; Lederer, H. 
 Journal of Physics: Condensed Matter, 26 (21), (2014). 
 The ELPA library: scalable parallel eigenvalue solutions for
 electronic structure
 theory and computational science.
 https://doi.org/10.1088/0953-8984/26/21/213201

 Guidon, M; Hutter, J; VandeVondele, J. 
 JOURNAL OF CHEMICAL THEORY AND COMPUTATION, 5 (11), 3010-3021 (2009). 
 Robust Periodic Hartree-Fock Exchange for Large-Scale Simulations Using
 Gaussian Basis Sets.
 https://doi.org/10.1021/ct900494g

 Guidon, M; Schiffmann, F; Hutter, J; VandeVondele, J. 
 JOURNAL OF CHEMICAL PHYSICS, 128 (21), 214104 (2008). 
 Ab initio molecular dynamics using hybrid density functionals.
 https://doi.org/10.1063/1.2931945

 Kuhne, TD; Krack, M; Mohamed, FR; Parrinello, M. 
 PHYSICAL REVIEW LETTERS, 98 (6), 066401 (2007). 
 Efficient and accurate Car-Parrinello-like approach to
 Born-Oppenheimer molecular dynamics.
 https://doi.org/10.1103/PhysRevLett.98.066401

 Laino, T; Mohamed, F; Laio, A; Parrinello, M. 
 JOURNAL OF CHEMICAL THEORY AND COMPUTATION, 2 (5), 1370-1378 (2006). 
 An efficient linear-scaling electrostatic coupling for treating
 periodic boundary conditions in QM/MM simulations.
 https://doi.org/10.1021/ct6001169

 Laino, T; Mohamed, F; Laio, A; Parrinello, M. 
 JOURNAL OF CHEMICAL THEORY AND COMPUTATION, 1 (6), 1176-1184 (2005). 
 An efficient real space multigrid QM/MM electrostatic coupling.
 https://doi.org/10.1021/ct050123f

 Krack, M. 
 THEORETICAL CHEMISTRY ACCOUNTS, 114 (1-3), 145-152 (2005). 
 Pseudopotentials for H to Kr optimized for gradient-corrected
 exchange-correlation functionals.
 https://doi.org/10.1007/s00214-005-0655-y

 VandeVondele, J; Krack, M; Mohamed, F; Parrinello, M; Chassaing, T;
 Hutter, J. COMPUTER PHYSICS COMMUNICATIONS, 167 (2), 103-128 (2005). 
 QUICKSTEP: Fast and accurate density functional calculations using a
 mixed Gaussian and plane waves approach.
 https://doi.org/10.1016/j.cpc.2004.12.014

 Frigo, M; Johnson, SG. 
 PROCEEDINGS OF THE IEEE, 93 (2), 216-231 (2005). 
 The design and implementation of FFTW3.
 https://doi.org/10.1109/JPROC.2004.840301

 Kolafa, J. 
 JOURNAL OF COMPUTATIONAL CHEMISTRY, 25 (3), 335-342 (2004). 
 Time-reversible always stable predictor-corrector method for molecular dynamics of polarizable molecules.
 https://doi.org/10.1002/jcc.10385

 VandeVondele, J; Hutter, J. 
 JOURNAL OF CHEMICAL PHYSICS, 118 (10), 4365-4369 (2003). 
 An efficient orbital transformation method for electronic structure
 calculations.
 https://doi.org/10.1063/1.1543154

 Hartwigsen, C; Goedecker, S; Hutter, J. 
 PHYSICAL REVIEW B, 58 (7), 3641-3662 (1998). 
 Relativistic separable dual-space Gaussian pseudopotentials from H to Rn.
 https://doi.org/10.1103/PhysRevB.58.3641

 Lippert, G; Hutter, J; Parrinello, M. 
 MOLECULAR PHYSICS, 92 (3), 477-487 (1997). 
 A hybrid Gaussian and plane wave density functional scheme.
 https://doi.org/10.1080/002689797170220

 Goedecker, S; Teter, M; Hutter, J. 
 PHYSICAL REVIEW B, 54 (3), 1703-1710 (1996). 
 Separable dual-space Gaussian pseudopotentials.
 https://doi.org/10.1103/PhysRevB.54.1703

 ESSMANN, U; PERERA, L; BERKOWITZ, ML; DARDEN, T; LEE, H; PEDERSEN, LG. 
 JOURNAL OF CHEMICAL PHYSICS, 103 (19), 8577-8593 (1995). 
 A SMOOTH PARTICLE MESH EWALD METHOD.
 https://doi.org/10.1063/1.470117

 BLOCHL, PE. 
 JOURNAL OF CHEMICAL PHYSICS, 103 (17), 7422-7428 (1995). 
 ELECTROSTATIC DECOUPLING OF PERIODIC IMAGES OF PLANE-WAVE-EXPANDED
 DENSITIES AND DERIVED ATOMIC POINT CHARGES.
 https://doi.org/10.1063/1.470314

 BECKE, AD. PHYSICAL REVIEW A, 38 (6), 3098-3100 (1988). 
 DENSITY-FUNCTIONAL EXCHANGE-ENERGY APPROXIMATION WITH CORRECT
 ASYMPTOTIC-BEHAVIOR.
 https://doi.org/10.1103/PhysRevA.38.3098

 LEE, CT; YANG, WT; PARR, RG. 
 PHYSICAL REVIEW B, 37 (2), 785-789 (1988). 
 DEVELOPMENT OF THE COLLE-SALVETTI CORRELATION-ENERGY FORMULA INTO A
 FUNCTIONAL OF THE ELECTRON-DENSITY.
 https://doi.org/10.1103/PhysRevB.37.785

 VOSKO, SH; WILK, L; NUSAIR, M. 
 CANADIAN JOURNAL OF PHYSICS, 58 (8), 1200-1211 (1980). 
 ACCURATE SPIN-DEPENDENT ELECTRON LIQUID CORRELATION ENERGIES FOR LOCAL
 SPIN-DENSITY CALCULATIONS - A CRITICAL ANALYSIS.
 https://doi.org/10.1139/p80-159


 -------------------------------------------------------------------------------
 -                                                                             -
 -                                T I M I N G                                  -
 -                                                                             -
 -------------------------------------------------------------------------------
 SUBROUTINE                       CALLS  ASD         SELF TIME        TOTAL TIME
                                MAXIMUM       AVERAGE  MAXIMUM  AVERAGE  MAXIMUM
 CP2K                                 1  1.0    0.050    0.064   25.342   25.343
 qs_mol_dyn_low                       1  2.0    0.003    0.003   24.185   24.255
 qs_forces                            2  3.5    0.000    0.000   17.194   17.194
 qs_energies                          2  4.5    0.000    0.000   12.942   12.944
 rebuild_ks_matrix                   12  8.3    0.000    0.000   11.737   11.750
 qs_ks_build_kohn_sham_matrix        12  9.3    0.001    0.001   11.737   11.750
 scf_env_do_scf                       2  5.5    0.000    0.000   10.199   10.199
 velocity_verlet                      1  3.0    0.000    0.000    9.515    9.516
 hfx_ks_matrix                       12 10.3    0.000    0.000    9.454    9.463
 qs_ks_update_qs_env                 12  7.8    0.000    0.000    7.496    7.508
 init_scf_loop                        2  6.5    0.000    0.000    6.573    6.573
 integrate_four_center               12 11.3    0.608    0.918    5.787    5.795
 dbcsr_multiply_generic             260 12.8    0.008    0.009    4.417    4.559
 multiply_cannon                    260 13.8    0.053    0.071    3.664    4.335
 qs_ks_update_qs_env_forces           2  4.5    0.000    0.000    4.241    4.244
 multiply_cannon_loop               260 14.8    0.028    0.035    3.519    4.175
 derivatives_four_center              2  8.5    0.021    0.293    3.666    3.667
 scf_env_do_scf_inner_loop           10  6.9    0.000    0.001    3.623    3.625
 qmmm_el_coupling                     2  3.5    0.000    0.000    3.441    3.489
 qmmm_elec_with_gaussian              2  4.5    0.003    0.003    3.440    3.485
 derivatives_four_center_main         2  9.5    0.019    0.087    3.354    3.354
 multiply_cannon_multrec           1040 15.8    1.567    3.040    2.027    3.304
 derivatives_four_center_bin        679 10.6    2.876    3.232    2.876    3.232
 integrate_four_center_main          12 12.3    0.011    0.017    2.638    2.928
 integrate_four_center_bin          969 13.3    2.627    2.920    2.627    2.920
 init_scf_run                         2  5.5    0.000    0.000    2.618    2.618
 scf_env_initial_rho_setup            2  6.5    0.000    0.000    2.618    2.618
 calculate_first_density_matrix       1  7.0    0.000    0.000    2.433    2.475
 mp_waitall_1                     14178 16.7    0.972    2.457    0.972    2.457
 qmmm_forces                          2  3.5    0.000    0.000    2.404    2.404
 dbcsr_mm_accdrv_process            622 16.1    0.427    2.324    0.449    2.400
 qmmm_forces_with_gaussian            2  4.5    0.004    0.005    2.167    2.351
 multiply_cannon_metrocomm3        1040 15.8    0.002    0.002    0.720    2.343
 pw_transfer                        262 11.7    0.011    0.013    2.185    2.249
 qmmm_elec_with_gaussian_low          2  5.5    0.000    0.000    2.166    2.229
 fft_wrap_pw1pw2                    216 12.9    0.002    0.002    2.162    2.225
 qmmm_elec_gaussian_low_G             2  6.5    2.052    2.112    2.052    2.112
 fft_wrap_pw1pw2_200                136 14.2    0.000    0.001    1.797    1.864
 mp_sum_l                          1056 10.9    0.952    1.829    0.952    1.829
 pw_integral_ab                     868  6.9    1.629    1.660    1.661    1.697
 calculate_dm_sparse                 12  9.7    0.000    0.000    1.640    1.680
 cp_dbcsr_plus_fm_fm_t_native         4  8.5    0.000    0.000    1.616    1.659
 qs_vxc_create                       12 10.3    0.000    0.000    1.316    1.318
 xc_vxc_pw_create                    12 11.3    0.032    0.034    1.315    1.318
 powell_optimize                 537390 13.0    1.020    1.315    1.020    1.315
 pw_restrict_s3                       6  5.5    0.156    0.174    1.210    1.257
 pw_cuda_r3dc1d_3d_ps               100 14.6    0.001    0.002    1.146    1.180
 prepare_preconditioner               2  7.5    0.000    0.000    1.163    1.166
 subspace_eigenvalues_ks_dbcsr        4  9.0    0.000    0.000    1.084    1.086
 pw_cuda_c1dr3d_3d_ps               116 15.2    0.002    0.002    1.014    1.043
 qmmm_env_create                      1  2.0    0.027    0.027    1.011    1.014
 qmmm_elec_with_gaussian:spline       2  5.5    0.000    0.000    0.968    1.013
 pw_prolongate_s3                     6  6.5    0.131    0.154    0.968    1.013
 mp_sync                             97 12.6    0.510    0.998    0.510    0.998
 qs_scf_new_mos                      10  7.9    0.000    0.000    0.975    0.985
 qs_scf_loop_do_ot                   10  8.9    0.000    0.000    0.975    0.985
 ot_scf_mini                         10  9.9    0.000    0.000    0.944    0.950
 qmmm_force_with_gaussian_low         2  5.5    0.000    0.000    0.774    0.927
 calc_screening_functions             1 12.0    0.188    0.203    0.731    0.878
 cp_dbcsr_sm_fm_multiply              6 10.3    0.000    0.000    0.848    0.848
 cp_dbcsr_sm_fm_multiply_core         6 11.3    0.000    0.000    0.804    0.837
 make_basis_sm                        2  9.0    0.000    0.000    0.831    0.831
 calc_pair_dist_radii                 1 12.0    0.170    0.190    0.647    0.829
 ot_mini                             10 10.9    0.000    0.000    0.818    0.828
 acc_transpose_blocks              1040 15.8    0.003    0.003    0.595    0.807
 qmmm_forces_gaussian_low_G           2  6.5    0.661    0.803    0.661    0.803
 acc_transpose_blocks_kernels      1040 16.8    0.006    0.010    0.583    0.793
 jit_kernel_transpose                 8 15.0    0.578    0.783    0.578    0.783
 qs_rho_update_rho                   12  7.9    0.000    0.000    0.709    0.766
 calculate_rho_elec                  12  8.9    0.023    0.023    0.709    0.766
 mp_sum_lv                           51  3.4    0.459    0.766    0.459    0.766
 qs_ot_get_derivative                10 11.9    0.000    0.000    0.724    0.730
 multiply_cannon_metrocomm1        1040 15.8    0.002    0.002    0.137    0.718
 fist_calc_energy_force               2  3.5    0.001    0.001    0.588    0.673
 xc_rho_set_and_dset_create          12 12.3    0.034    0.038    0.628    0.659
 density_rs2pw                       12  9.9    0.000    0.000    0.606    0.653
 mp_sum_dm3                          13  5.2    0.577    0.649    0.577    0.649
 mp_alltoall_z22v                   216 16.9    0.496    0.642    0.496    0.642
 mp_bcast_im                         61 10.1    0.556    0.594    0.556    0.594
 fist_init                            1  3.0    0.000    0.000    0.591    0.592
 init_cube_info                       8  5.5    0.490    0.515    0.490    0.515
 qs_ks_qmmm_create                    1  3.0    0.000    0.000    0.490    0.514
 -------------------------------------------------------------------------------

 The number of warnings for this run is : 0
 
 -------------------------------------------------------------------------------
  **** **** ******  **  PROGRAM ENDED AT                 2021-07-26 15:58:02.336
 ***** ** ***  *** **   PROGRAM RAN ON                                    r2i7n1
 **    ****   ******    PROGRAM RAN BY                                    hollyj
 ***** **    ** ** **   PROGRAM PROCESS ID                                 22331
  **** **  *******  **  PROGRAM STOPPED IN /lustre/home/w68/hollyj/CP2K/Cirrus/G
                                           PU/cp2kMD/MQAE-B3LYP/1STEPS/4NODES/36
                                           CPN/10THREADS
