 DBCSR| CPU Multiplication driver                                           XSMM
 DBCSR| Multrec recursion limit                                              512
 DBCSR| Multiplication stack size                                          30000
 DBCSR| Maximum elements for images                                    UNLIMITED
 DBCSR| Multiplicative factor virtual images                                   1
 DBCSR| Use multiplication densification                                       F
 DBCSR| Multiplication size stacks                                             3
 DBCSR| Use memory pool for CPU allocation                                     F
 DBCSR| Number of 3D layers                                               SINGLE
 DBCSR| Use MPI memory allocation                                              F
 DBCSR| Use RMA algorithm                                                      F
 DBCSR| Use Communication thread                                               T
 DBCSR| Communication thread load                                             53
 DBCSR| MPI: My node id                                                        0
 DBCSR| MPI: Number of nodes                                                  32
 DBCSR| OMP: Current number of threads                                        10
 DBCSR| OMP: Max number of threads                                            10
 DBCSR| ACC: Number of devices/node                                            4
 DBCSR| ACC: Number of priority stack-buffers                                 40
 DBCSR| ACC: Number of posterior stack-buffers                                80
 DBCSR| ACC: Number of priority streams                                        4
 DBCSR| ACC: Number of posterior streams                                       4
 DBCSR| ACC: Avoid driver after busy                                           F
 DBCSR| ACC: Process inhomogeneous stacks                                      T
 DBCSR| ACC: Min. flop for processing                                          0
 DBCSR| ACC: Min. flop for sorting                                          4000
 DBCSR| ACC: Number of binning bins                                         4096
 DBCSR| ACC: Size of binning bins                                             16
 DBCSR| Split modifier for TAS multiplication algorithm                  1.0E+00


  **** **** ******  **  PROGRAM STARTED AT               2021-07-26 14:42:00.919
 ***** ** ***  *** **   PROGRAM STARTED ON                                r2i4n0
 **    ****   ******    PROGRAM STARTED BY                                hollyj
 ***** **    ** ** **   PROGRAM PROCESS ID                                 67003
  **** **  *******  **  PROGRAM STARTED IN /lustre/home/w68/hollyj/CP2K/Cirrus/G
                                           PU/cp2kMD/ClC-253-BLYP/6STEPS/8NODES/
                                           36CPN/10THREADS

 CP2K| version string:                                          CP2K version 8.2
 CP2K| source code revision number:                                  git:310b7ab
 CP2K| cp2kflags: omp libint fftw3 libxc elpa parallel mpi3 scalapack cosma pw_c
 CP2K|            uda xsmm cuda_profiling dbcsr_acc spglib mkl grid_cuda
 CP2K| is freely available from                            https://www.cp2k.org/
 CP2K| Program compiled at                          Thu Jul 22 18:07:58 BST 2021
 CP2K| Program compiled on                                                r2i5n7
 CP2K| Program compiled for                                           Cirrus-gcc
 CP2K| Data directory path       /lustre/home/w68/hollyj/CP2K/v8.2/cp2k-8.2/data
 CP2K| Input file name                                          ClC-253-cp2k.inp

 GLOBAL| Force Environment number                                              1
 GLOBAL| Basis set file name                                        BASIS_MOLOPT
 GLOBAL| Potential file name                                           POTENTIAL
 GLOBAL| MM Potential file name                                     MM_POTENTIAL
 GLOBAL| Coordinate file name                                            ClC.pdb
 GLOBAL| Method name                                                        CP2K
 GLOBAL| Project name                                               ClC-253-BLYP
 GLOBAL| Run type                                                             MD
 GLOBAL| FFT library                                                       FFTW3
 GLOBAL| Diagonalization library                                            ELPA
 GLOBAL| Minimum number of eigenvectors for ELPA usage                        16
 GLOBAL| Orthonormality check for eigenvectors                          DISABLED
 GLOBAL| Matrix multiplication library                                     COSMA
 GLOBAL| All-to-all communication in single precision                          F
 GLOBAL| FFTs using library dependent lengths                                  F
 GLOBAL| Grid backend                                                       AUTO
 GLOBAL| Global print level                                                  LOW
 GLOBAL| MPI I/O enabled                                                       T
 GLOBAL| Total number of message passing processes                            32
 GLOBAL| Number of threads for this process                                   10
 GLOBAL| This output is from process                                           0
 GLOBAL| CPU model name                 Intel(R) Xeon(R) Gold 6248 CPU @ 2.50GHz
 GLOBAL| CPUID                                                              1003

 MEMORY| system memory details [Kb]
 MEMORY|                        rank 0           min           max       average
 MEMORY| MemTotal            394535408     394535408     394535408     394535408
 MEMORY| MemFree             387258844     387178300     387560864     387433362
 MEMORY| Buffers                     0             0             0             0
 MEMORY| Cached                1053552        863068       1053552        938088
 MEMORY| Slab                   955608        859412        955608        910155
 MEMORY| SReclaimable           171560        156196        172552        167208
 MEMORY| MemLikelyFree       388483956     388297656     388675660     388538659



                      ************* ******** ***********   
                     ************* **********************  
                     ****     **** ****      ***********   
                     ******** ****  *******     ****       
                     *******  ****   *******   ****        
                     ****     ****       ****  ****        
                     ****     **** **********  ****        
                      ****     **** ********    ****       
                     FRONTIERS IN SIMULATION TECHNOLOGY    
                                                           
                        C.J. Mundy, S. Balasubramanian,    
                     Ken Bagchi, J. Hutter, Ari Seitsonen  
                      IFW Kuo, T. Laino, J. VandeVondele   
                                 Version 1.0               

                                                           


 EWALD| Summation is done by:                                               SPME
 EWALD| Alpha parameter [       ANGSTROM^-1]                              0.4000
 EWALD| Real Space Cutoff [          ANGSTROM]                            8.4348
 EWALD| G-space max. Miller index                         80        80        80
 EWALD| Spline interpolation order                                             6

 FORCEFIELD| WARNING: A non Critical ForceField parameter is missing! CP2K GOES!
 FORCEFIELD| Non critical parameters are:Urey-Bradley,Torsions,Impropers, Opbends and 1-4
 FORCEFIELD| All missing parameters will not contribute to the potential energy!
 FORCEFIELD| Activate the print key FF_INFO to have a list of missing parameters

 CHARGE_INFO| Total Charge of the Classical System:                     2.369895

 SPLINE_INFO| Generating 85491 splines for NONBONDED14 interactions 
              Due to 413 different atomic kinds
  ...8549  ...17098  ...25647  ...34196  ...42745  ...51294  ...59843  ...68392  ...76941  ...85490
 SPLINE_INFO| Number of unique splines computed:            254
 SPLINE_INFO| Done

 SPLINE_INFO| Generating 85491 splines for NONBONDED interactions 
              Due to 413 different atomic kinds
  ...8549  ...17098  ...25647  ...34196  ...42745  ...51294  ...59843  ...68392  ...76941  ...85490
 SPLINE_INFO| Number of unique splines computed:            254
 SPLINE_INFO| Done

 *******************************************************************************
 *******************************************************************************
 **                                                                           **
 **     #####                         ##              ##                      **
 **    ##   ##            ##          ##              ##                      **
 **   ##     ##                       ##            ######                    **
 **   ##     ##  ##   ##  ##   #####  ##  ##   ####   ##    #####    #####    **
 **   ##     ##  ##   ##  ##  ##      ## ##   ##      ##   ##   ##  ##   ##   **
 **   ##  ## ##  ##   ##  ##  ##      ####     ###    ##   ######   ######    **
 **    ##  ###   ##   ##  ##  ##      ## ##      ##   ##   ##       ##        **
 **     #######   #####   ##   #####  ##  ##  ####    ##    #####   ##        **
 **           ##                                                    ##        **
 **                                                                           **
 **                                                ... make the atoms dance   **
 **                                                                           **
 **            Copyright (C) by CP2K developers group (2000-2021)             **
 **                      J. Chem. Phys. 152, 194103 (2020)                    **
 **                                                                           **
 *******************************************************************************


 TOTAL NUMBERS AND MAXIMUM NUMBERS

  Total number of            - Atomic kinds:                                   6
                             - Atoms:                                        253
                             - Shell sets:                                   253
                             - Shells:                                       991
                             - Primitive Cartesian functions:               1770
                             - Cartesian basis functions:                   2309
                             - Spherical basis functions:                   2193

  Maximum angular momentum of- Orbital basis functions:                        2
                             - Local part of the GTH pseudopotential:          2
                             - Non-local part of the GTH pseudopotential:      2


 SCF PARAMETERS         Density guess:                                   RESTART
                        --------------------------------------------------------
                        max_scf:                                             300
                        max_scf_history:                                       0
                        max_diis:                                              4
                        --------------------------------------------------------
                        eps_scf:                                        1.00E-06
                        eps_scf_history:                                0.00E+00
                        eps_diis:                                       1.00E-01
                        eps_eigval:                                     1.00E-05
                        --------------------------------------------------------
                        level_shift [a.u.]:                                 0.00
                        --------------------------------------------------------
                        No outer SCF

 *******************************************************************************
 *******************************************************************************
 **                                                                           **
 **             #######  ##     ## ##     ## ##     ##                        **
 **            ##     ## ###   ### ###   ### ###   ###                        **
 **            ##     ## #### #### #### #### #### ####                        **
 **            ##     ## ## ### ## ## ### ## ## ### ##                        **
 **            ##  ## ## ##     ## ##     ## ##     ##                        **
 **            ##    ##  ##     ## ##     ## ##     ##  T.Laino and F.Mohamed **
 **             ##### ## ##     ## ##     ## ##     ##  2005 - 2015           **
 **                                                                           **
 **                                                     Calculation Started.. **
 *******************************************************************************
 *******************************************************************************

 MD_PAR| Molecular dynamics protocol (MD input parameters)
 MD_PAR| Ensemble type                                                       NVE
 MD_PAR| Number of time steps                                                  6
 MD_PAR| Time step [fs]                                                 1.000000
 MD_PAR| Temperature [K]                                              300.000000
 MD_PAR| Temperature tolerance [K]                                      0.000000
 MD_PAR| Print MD information every                                    1 step(s)
 MD_PAR| File type   Print frequency [steps]                          File names
 MD_PAR| Coordinates          1                           ClC-253-BLYP-pos-1.xyz
 MD_PAR| Velocities           1                           ClC-253-BLYP-vel-1.xyz
 MD_PAR| Energies             1                              ClC-253-BLYP-1.ener
 MD_PAR| Dump                20                           ClC-253-BLYP-1.restart

 ROT| Rotational analysis information
 ROT| Principal axes and moments of inertia [a.u.]
 ROT|                           1                   2                   3
 ROT| Eigenvalues      6.49908278768+119   9.69266118148+120   9.76757630270+120
 ROT|      x              0.966767624107     -0.244635852463     -0.074254027960
 ROT|      y             -0.214972405609     -0.620674029844     -0.754022952902
 ROT|      z             -0.138373501094     -0.744927545716      0.652637514880
 ROT| Number of rotovibrational vectors                                        6

 DOF| Calculation of degrees of freedom
 DOF| Number of atoms                                                     150925
 DOF| Number of intramolecular constraints                                     0
 DOF| Number of intermolecular constraints                                     0
 DOF| Invariants (translations + rotations)                                    3
 DOF| Degrees of freedom                                                  452772

 DOF| Restraints information
 DOF| Number of intramolecular restraints                                      0
 DOF| Number of intermolecular restraints                                      0

 MD_VEL| Velocities initialization
 MD_VEL| Initial temperature [K]                                      300.000000
 MD_VEL| COM velocity            -0.0000000000     0.0000000000     0.0000000000

  Translating the system in order to center the QM fragment in the QM box.

 Number of electrons:                                                        654
 Number of occupied orbitals:                                                327
 Number of molecular orbitals:                                               327

 Number of orbital functions:                                               2193
 Number of independent orbital functions:                                   2193

 Extrapolation method: initial_guess


 SCF WAVEFUNCTION OPTIMIZATION

  ----------------------------------- OT ---------------------------------------
  Minimizer      : DIIS                : direct inversion
                                         in the iterative subspace
                                         using   7 DIIS vectors
                                         safer DIIS on
  Preconditioner : FULL_ALL            : diagonalization, state selective
  Precond_solver : DEFAULT
  stepsize       :    0.15000000                  energy_gap     :    0.08000000
  eps_taylor     :   0.10000E-15                  max_taylor     :             4
  ----------------------------------- OT ---------------------------------------

  Step     Update method      Time    Convergence         Total energy    Change
  ------------------------------------------------------------------------------
  Decoupling Energy:                                               0.0674872996
  Recoupling Energy:                                              -0.0068222234
     1 OT DIIS     0.15E+00    7.2     0.00001627     -1098.7913677411 -1.10E+03
  Decoupling Energy:                                               0.0674861058
  Recoupling Energy:                                              -0.0068221797
     2 OT DIIS     0.15E+00    0.7     0.00000900     -1098.7913888938 -2.12E-05
  Decoupling Energy:                                               0.0674950603
  Recoupling Energy:                                              -0.0068223087
     3 OT DIIS     0.15E+00    0.7     0.00001460     -1098.7913964549 -7.56E-06
  Decoupling Energy:                                               0.0674896965
  Recoupling Energy:                                              -0.0068222498
     4 OT DIIS     0.15E+00    0.7     0.00000626     -1098.7913998880 -3.43E-06
  Decoupling Energy:                                               0.0674872278
  Recoupling Energy:                                              -0.0068222035
     5 OT DIIS     0.15E+00    0.7     0.00000578     -1098.7914020837 -2.20E-06
  Decoupling Energy:                                               0.0674888303
  Recoupling Energy:                                              -0.0068221999
     6 OT DIIS     0.15E+00    0.7     0.00000580     -1098.7914084634 -6.38E-06
  Decoupling Energy:                                               0.0674891663
  Recoupling Energy:                                              -0.0068222222
     7 OT DIIS     0.15E+00    0.7     0.00000561     -1098.7914167881 -8.32E-06
  Decoupling Energy:                                               0.0674892941
  Recoupling Energy:                                              -0.0068222412
     8 OT DIIS     0.15E+00    0.7     0.00000524     -1098.7914221585 -5.37E-06
  Decoupling Energy:                                               0.0674881906
  Recoupling Energy:                                              -0.0068221895
     9 OT DIIS     0.15E+00    0.7     0.00000516     -1098.7914280315 -5.87E-06
  Decoupling Energy:                                               0.0674891068
  Recoupling Energy:                                              -0.0068222186
    10 OT DIIS     0.15E+00    0.7     0.00000503     -1098.7914326439 -4.61E-06
  Decoupling Energy:                                               0.0674910255
  Recoupling Energy:                                              -0.0068222409
    11 OT DIIS     0.15E+00    0.7     0.00000505     -1098.7914451574 -1.25E-05
  Decoupling Energy:                                               0.0674893445
  Recoupling Energy:                                              -0.0068222092
    12 OT DIIS     0.15E+00    0.7     0.00000544     -1098.7914511015 -5.94E-06
  Decoupling Energy:                                               0.0674886192
  Recoupling Energy:                                              -0.0068221746
    13 OT DIIS     0.15E+00    0.7     0.00000506     -1098.7914589353 -7.83E-06
  Decoupling Energy:                                               0.0674897272
  Recoupling Energy:                                              -0.0068221819
    14 OT DIIS     0.15E+00    0.7     0.00000482     -1098.7914634348 -4.50E-06
  Decoupling Energy:                                               0.0674896707
  Recoupling Energy:                                              -0.0068222125
    15 OT DIIS     0.15E+00    0.7     0.00000471     -1098.7914698145 -6.38E-06
  Decoupling Energy:                                               0.0674902115
  Recoupling Energy:                                              -0.0068221925
    16 OT DIIS     0.15E+00    0.7     0.00000482     -1098.7914781062 -8.29E-06
  Decoupling Energy:                                               0.0674901472
  Recoupling Energy:                                              -0.0068221797
    17 OT DIIS     0.15E+00    0.7     0.00000498     -1098.7914886289 -1.05E-05
  Decoupling Energy:                                               0.0674880435
  Recoupling Energy:                                              -0.0068221048
    18 OT DIIS     0.15E+00    0.7     0.00000526     -1098.7915022664 -1.36E-05
  Decoupling Energy:                                               0.0674897586
  Recoupling Energy:                                              -0.0068221785
    19 OT DIIS     0.15E+00    0.7     0.00000471     -1098.7915055207 -3.25E-06
  Decoupling Energy:                                               0.0674872475
  Recoupling Energy:                                              -0.0068220953
    20 OT DIIS     0.15E+00    0.7     0.00000508     -1098.7915154560 -9.94E-06
  Decoupling Energy:                                               0.0674906167
  Recoupling Energy:                                              -0.0068222473
    21 OT DIIS     0.15E+00    0.7     0.00000457     -1098.7915235632 -8.11E-06
  Decoupling Energy:                                               0.0674882094
  Recoupling Energy:                                              -0.0068221454
    22 OT DIIS     0.15E+00    0.7     0.00000473     -1098.7915323917 -8.83E-06
  Decoupling Energy:                                               0.0674847826
  Recoupling Energy:                                              -0.0068220505
    23 OT DIIS     0.15E+00    0.7     0.00000542     -1098.7915548569 -2.25E-05
  Decoupling Energy:                                               0.0674699959
  Recoupling Energy:                                              -0.0068215480
    24 OT DIIS     0.15E+00    0.7     0.00001418     -1098.7915841560 -2.93E-05
  Decoupling Energy:                                               0.0674739933
  Recoupling Energy:                                              -0.0068217824
    25 OT SD       0.15E+00    0.7     0.00000724     -1098.7915868327 -2.68E-06
  Decoupling Energy:                                               0.0674836505
  Recoupling Energy:                                              -0.0068222788
    26 OT SD       0.15E+00    0.7     0.00001712     -1098.7915858285  1.00E-06
  Decoupling Energy:                                               0.0674808642
  Recoupling Energy:                                              -0.0068216362
    27 OT DIIS     0.15E+00    0.7     0.00005727     -1098.7915520468  3.38E-05
  Decoupling Energy:                                               0.0674947417
  Recoupling Energy:                                              -0.0068224728
    28 OT DIIS     0.15E+00    0.7     0.00000821     -1098.7915724252 -2.04E-05
  Decoupling Energy:                                               0.0674768507
  Recoupling Energy:                                              -0.0068218846
    29 OT DIIS     0.15E+00    0.7     0.00000539     -1098.7915985535 -2.61E-05
  Decoupling Energy:                                               0.0674835214
  Recoupling Energy:                                              -0.0068221007
    30 OT SD       0.15E+00    0.7     0.00000463     -1098.7916040725 -5.52E-06
  Decoupling Energy:                                               0.0674810456
  Recoupling Energy:                                              -0.0068220181
    31 OT DIIS     0.15E+00    0.7     0.00000894     -1098.7916049463 -8.74E-07
  Decoupling Energy:                                               0.0674855074
  Recoupling Energy:                                              -0.0068221340
    32 OT SD       0.15E+00    0.7     0.00000392     -1098.7916135978 -8.65E-06
  Decoupling Energy:                                               0.0674890623
  Recoupling Energy:                                              -0.0068222227
    33 OT DIIS     0.15E+00    0.7     0.00000540     -1098.7916148950 -1.30E-06
  Decoupling Energy:                                               0.0674876840
  Recoupling Energy:                                              -0.0068221546
    34 OT DIIS     0.15E+00    0.7     0.00000373     -1098.7916208254 -5.93E-06
  Decoupling Energy:                                               0.0674877213
  Recoupling Energy:                                              -0.0068221785
    35 OT DIIS     0.15E+00    0.7     0.00000370     -1098.7916231370 -2.31E-06
  Decoupling Energy:                                               0.0674875505
  Recoupling Energy:                                              -0.0068221509
    36 OT DIIS     0.15E+00    0.7     0.00000400     -1098.7916341155 -1.10E-05
  Decoupling Energy:                                               0.0674875255
  Recoupling Energy:                                              -0.0068221469
    37 OT DIIS     0.15E+00    0.7     0.00000377     -1098.7916392175 -5.10E-06
  Decoupling Energy:                                               0.0674846560
  Recoupling Energy:                                              -0.0068220695
    38 OT SD       0.15E+00    0.7     0.00000380     -1098.7916448029 -5.59E-06
  Decoupling Energy:                                               0.0674855381
  Recoupling Energy:                                              -0.0068221506
    39 OT DIIS     0.15E+00    0.7     0.00000675     -1098.7916456622 -8.59E-07
  Decoupling Energy:                                               0.0674807381
  Recoupling Energy:                                              -0.0068219768
    40 OT SD       0.15E+00    0.7     0.00000454     -1098.7916593298 -1.37E-05
  Decoupling Energy:                                               0.0674769458
  Recoupling Energy:                                              -0.0068219670
    41 OT SD       0.15E+00    0.7     0.00000937     -1098.7916596929 -3.63E-07
  Decoupling Energy:                                               0.0674895012
  Recoupling Energy:                                              -0.0068221138
    42 OT DIIS     0.15E+00    0.7     0.00002997     -1098.7916510972  8.60E-06
  Decoupling Energy:                                               0.0674782357
  Recoupling Energy:                                              -0.0068219392
    43 OT DIIS     0.15E+00    0.7     0.00000365     -1098.7916657043 -1.46E-05
  Decoupling Energy:                                               0.0674784760
  Recoupling Energy:                                              -0.0068219407
    44 OT DIIS     0.15E+00    0.7     0.00000337     -1098.7916710196 -5.32E-06
  Decoupling Energy:                                               0.0674762165
  Recoupling Energy:                                              -0.0068219283
    45 OT DIIS     0.15E+00    0.7     0.00000362     -1098.7916812888 -1.03E-05
  Decoupling Energy:                                               0.0674769520
  Recoupling Energy:                                              -0.0068219474
    46 OT DIIS     0.15E+00    0.7     0.00000327     -1098.7916849593 -3.67E-06
  Decoupling Energy:                                               0.0674741791
  Recoupling Energy:                                              -0.0068218721
    47 OT DIIS     0.15E+00    0.7     0.00000448     -1098.7916952856 -1.03E-05
  Decoupling Energy:                                               0.0674755255
  Recoupling Energy:                                              -0.0068219163
    48 OT DIIS     0.15E+00    0.7     0.00000311     -1098.7916980959 -2.81E-06
  Decoupling Energy:                                               0.0674742304
  Recoupling Energy:                                              -0.0068219045
    49 OT DIIS     0.15E+00    0.7     0.00000553     -1098.7917083171 -1.02E-05
  Decoupling Energy:                                               0.0674775578
  Recoupling Energy:                                              -0.0068219922
    50 OT DIIS     0.15E+00    0.7     0.00000379     -1098.7917138546 -5.54E-06
  Decoupling Energy:                                               0.0674794172
  Recoupling Energy:                                              -0.0068220209
    51 OT DIIS     0.15E+00    0.7     0.00000292     -1098.7917207755 -6.92E-06
  Decoupling Energy:                                               0.0674785962
  Recoupling Energy:                                              -0.0068219592
    52 OT DIIS     0.15E+00    0.7     0.00000418     -1098.7917246135 -3.84E-06
  Decoupling Energy:                                               0.0674806858
  Recoupling Energy:                                              -0.0068220148
    53 OT DIIS     0.15E+00    0.7     0.00000296     -1098.7917268986 -2.29E-06
  Decoupling Energy:                                               0.0674828511
  Recoupling Energy:                                              -0.0068220704
    54 OT DIIS     0.15E+00    0.7     0.00000536     -1098.7917366484 -9.75E-06
  Decoupling Energy:                                               0.0674845456
  Recoupling Energy:                                              -0.0068221027
    55 OT DIIS     0.15E+00    0.7     0.00000312     -1098.7917368523 -2.04E-07
  Decoupling Energy:                                               0.0674881574
  Recoupling Energy:                                              -0.0068221628
    56 OT SD       0.15E+00    0.7     0.00000634     -1098.7917470923 -1.02E-05
  Decoupling Energy:                                               0.0674739782
  Recoupling Energy:                                              -0.0068218352
    57 OT SD       0.15E+00    0.8     0.00001492     -1098.7917455911  1.50E-06
  Decoupling Energy:                                               0.0675039583
  Recoupling Energy:                                              -0.0068225999
    58 OT DIIS     0.15E+00    0.7     0.00004736     -1098.7917175234  2.81E-05
  Decoupling Energy:                                               0.0674835367
  Recoupling Energy:                                              -0.0068220172
    59 OT DIIS     0.15E+00    0.8     0.00000335     -1098.7917459876 -2.85E-05
  Decoupling Energy:                                               0.0674899688
  Recoupling Energy:                                              -0.0068222439
    60 OT DIIS     0.15E+00    0.8     0.00000258     -1098.7917499338 -3.95E-06
  Decoupling Energy:                                               0.0674929386
  Recoupling Energy:                                              -0.0068223217
    61 OT DIIS     0.15E+00    0.8     0.00000395     -1098.7917557393 -5.81E-06
  Decoupling Energy:                                               0.0674936179
  Recoupling Energy:                                              -0.0068223074
    62 OT DIIS     0.15E+00    0.8     0.00000310     -1098.7917584005 -2.66E-06
  Decoupling Energy:                                               0.0674928213
  Recoupling Energy:                                              -0.0068222706
    63 OT SD       0.15E+00    0.8     0.00000252     -1098.7917598035 -1.40E-06
  Decoupling Energy:                                               0.0674896212
  Recoupling Energy:                                              -0.0068222093
    64 OT DIIS     0.15E+00    0.8     0.00000349     -1098.7917602532 -4.50E-07
  Decoupling Energy:                                               0.0674942059
  Recoupling Energy:                                              -0.0068223189
    65 OT DIIS     0.15E+00    0.8     0.00000280     -1098.7917666793 -6.43E-06
  Decoupling Energy:                                               0.0674936669
  Recoupling Energy:                                              -0.0068222776
    66 OT DIIS     0.15E+00    0.8     0.00000303     -1098.7917685153 -1.84E-06
  Decoupling Energy:                                               0.0674963080
  Recoupling Energy:                                              -0.0068223423
    67 OT DIIS     0.15E+00    0.8     0.00000323     -1098.7917735268 -5.01E-06
  Decoupling Energy:                                               0.0674995515
  Recoupling Energy:                                              -0.0068224255
    68 OT SD       0.15E+00    0.8     0.00000371     -1098.7917786251 -5.10E-06
  Decoupling Energy:                                               0.0674871456
  Recoupling Energy:                                              -0.0068220790
    69 OT SD       0.15E+00    0.8     0.00000772     -1098.7917784656  1.60E-07
  Decoupling Energy:                                               0.0675067722
  Recoupling Energy:                                              -0.0068226901
    70 OT DIIS     0.15E+00    0.8     0.00002225     -1098.7917732380  5.23E-06
  Decoupling Energy:                                               0.0674927592
  Recoupling Energy:                                              -0.0068222602
    71 OT DIIS     0.15E+00    0.8     0.00000226     -1098.7917801503 -6.91E-06
  Decoupling Energy:                                               0.0674966062
  Recoupling Energy:                                              -0.0068223555
    72 OT DIIS     0.15E+00    0.8     0.00000256     -1098.7917837928 -3.64E-06
  Decoupling Energy:                                               0.0674997873
  Recoupling Energy:                                              -0.0068224447
    73 OT DIIS     0.15E+00    0.7     0.00000330     -1098.7917896447 -5.85E-06
  Decoupling Energy:                                               0.0675095750
  Recoupling Energy:                                              -0.0068227147
    74 OT DIIS     0.15E+00    0.8     0.00000541     -1098.7917973561 -7.71E-06
  Decoupling Energy:                                               0.0675084203
  Recoupling Energy:                                              -0.0068226650
    75 OT SD       0.15E+00    0.8     0.00000467     -1098.7917993104 -1.95E-06
  Decoupling Energy:                                               0.0674911618
  Recoupling Energy:                                              -0.0068221561
    76 OT SD       0.15E+00    0.8     0.00000995     -1098.7917986294  6.81E-07
  Decoupling Energy:                                               0.0675158981
  Recoupling Energy:                                              -0.0068229845
    77 OT DIIS     0.15E+00    0.8     0.00002850     -1098.7917895925  9.04E-06
  Decoupling Energy:                                               0.0674877810
  Recoupling Energy:                                              -0.0068221437
    78 OT DIIS     0.15E+00    0.8     0.00000330     -1098.7917970928 -7.50E-06
  Decoupling Energy:                                               0.0675000147
  Recoupling Energy:                                              -0.0068224305
    79 OT DIIS     0.15E+00    0.8     0.00000254     -1098.7918009461 -3.85E-06
  Decoupling Energy:                                               0.0674983483
  Recoupling Energy:                                              -0.0068223889
    80 OT DIIS     0.15E+00    0.8     0.00000174     -1098.7918019739 -1.03E-06
  Decoupling Energy:                                               0.0674932311
  Recoupling Energy:                                              -0.0068222609
    81 OT DIIS     0.15E+00    0.8     0.00000154     -1098.7918022744 -3.00E-07
  Decoupling Energy:                                               0.0674931108
  Recoupling Energy:                                              -0.0068222502
    82 OT DIIS     0.15E+00    0.7     0.00000158     -1098.7918030838 -8.09E-07
  Decoupling Energy:                                               0.0674941937
  Recoupling Energy:                                              -0.0068222773
    83 OT DIIS     0.15E+00    0.8     0.00000151     -1098.7918033929 -3.09E-07
  Decoupling Energy:                                               0.0674935297
  Recoupling Energy:                                              -0.0068222462
    84 OT DIIS     0.15E+00    0.8     0.00000146     -1098.7918049111 -1.52E-06
  Decoupling Energy:                                               0.0674921691
  Recoupling Energy:                                              -0.0068222163
    85 OT DIIS     0.15E+00    0.7     0.00000148     -1098.7918052918 -3.81E-07
  Decoupling Energy:                                               0.0674927042
  Recoupling Energy:                                              -0.0068222117
    86 OT DIIS     0.15E+00    0.8     0.00000137     -1098.7918068027 -1.51E-06
  Decoupling Energy:                                               0.0674932284
  Recoupling Energy:                                              -0.0068222212
    87 OT DIIS     0.15E+00    0.7     0.00000137     -1098.7918082018 -1.40E-06
  Decoupling Energy:                                               0.0674933005
  Recoupling Energy:                                              -0.0068222110
    88 OT DIIS     0.15E+00    0.8     0.00000135     -1098.7918094075 -1.21E-06
  Decoupling Energy:                                               0.0674940509
  Recoupling Energy:                                              -0.0068222214
    89 OT DIIS     0.15E+00    0.8     0.00000132     -1098.7918106741 -1.27E-06
  Decoupling Energy:                                               0.0674950601
  Recoupling Energy:                                              -0.0068222481
    90 OT DIIS     0.15E+00    0.7     0.00000135     -1098.7918118275 -1.15E-06
  Decoupling Energy:                                               0.0674958225
  Recoupling Energy:                                              -0.0068222625
    91 OT DIIS     0.15E+00    0.7     0.00000132     -1098.7918127590 -9.31E-07
  Decoupling Energy:                                               0.0674958880
  Recoupling Energy:                                              -0.0068222612
    92 OT DIIS     0.15E+00    0.8     0.00000129     -1098.7918136740 -9.15E-07
  Decoupling Energy:                                               0.0674962677
  Recoupling Energy:                                              -0.0068222797
    93 OT DIIS     0.15E+00    0.7     0.00000142     -1098.7918146246 -9.51E-07
  Decoupling Energy:                                               0.0674997111
  Recoupling Energy:                                              -0.0068223473
    94 OT DIIS     0.15E+00    0.7     0.00000146     -1098.7918163463 -1.72E-06
  Decoupling Energy:                                               0.0675001575
  Recoupling Energy:                                              -0.0068223567
    95 OT DIIS     0.15E+00    0.7     0.00000139     -1098.7918170204 -6.74E-07
  Decoupling Energy:                                               0.0674986154
  Recoupling Energy:                                              -0.0068223211
    96 OT DIIS     0.15E+00    0.8     0.00000126     -1098.7918177315 -7.11E-07
  Decoupling Energy:                                               0.0675042103
  Recoupling Energy:                                              -0.0068224457
    97 OT DIIS     0.15E+00    0.7     0.00000173     -1098.7918202588 -2.53E-06
  Decoupling Energy:                                               0.0675025261
  Recoupling Energy:                                              -0.0068223939
    98 OT DIIS     0.15E+00    0.8     0.00000131     -1098.7918219942 -1.74E-06
  Decoupling Energy:                                               0.0675113600
  Recoupling Energy:                                              -0.0068225884
    99 OT DIIS     0.15E+00    0.7     0.00000250     -1098.7918252723 -3.28E-06
  Decoupling Energy:                                               0.0675135613
  Recoupling Energy:                                              -0.0068226240
   100 OT DIIS     0.15E+00    0.7     0.00000283     -1098.7918264486 -1.18E-06
  Decoupling Energy:                                               0.0675143469
  Recoupling Energy:                                              -0.0068226422
   101 OT SD       0.15E+00    0.8     0.00000280     -1098.7918269385 -4.90E-07
  Decoupling Energy:                                               0.0675020579
  Recoupling Energy:                                              -0.0068222633
   102 OT SD       0.15E+00    0.7     0.00000579     -1098.7918267228  2.16E-07
  Decoupling Energy:                                               0.0675171034
  Recoupling Energy:                                              -0.0068228892
   103 OT DIIS     0.15E+00    0.7     0.00001537     -1098.7918240257  2.70E-06
  Decoupling Energy:                                               0.0675040153
  Recoupling Energy:                                              -0.0068224035
   104 OT SD       0.15E+00    0.7     0.00000119     -1098.7918268981 -2.87E-06
  Decoupling Energy:                                               0.0675030584
  Recoupling Energy:                                              -0.0068223828
   105 OT DIIS     0.15E+00    0.7     0.00000184     -1098.7918269842 -8.61E-08
  Decoupling Energy:                                               0.0675030223
  Recoupling Energy:                                              -0.0068223822
   106 OT SD       0.15E+00    0.8     0.00000107     -1098.7918279402 -9.56E-07
  Decoupling Energy:                                               0.0675015909
  Recoupling Energy:                                              -0.0068223423
   107 OT DIIS     0.15E+00    0.7     0.00000150     -1098.7918280301 -8.99E-08
  Decoupling Energy:                                               0.0675000608
  Recoupling Energy:                                              -0.0068223115
   108 OT DIIS     0.15E+00    0.7     0.00000102     -1098.7918291195 -1.09E-06
  Decoupling Energy:                                               0.0675017074
  Recoupling Energy:                                              -0.0068223448
   109 OT SD       0.15E+00    0.7     0.00000114     -1098.7918307075 -1.59E-06
  Decoupling Energy:                                               0.0674986308
  Recoupling Energy:                                              -0.0068222508
   110 OT DIIS     0.15E+00    0.8     0.00000207     -1098.7918307538 -4.63E-08
  Decoupling Energy:                                               0.0675008567
  Recoupling Energy:                                              -0.0068223091
   111 OT DIIS     0.15E+00    0.7     0.00000101     -1098.7918321531 -1.40E-06
  Decoupling Energy:                                               0.0675034966
  Recoupling Energy:                                              -0.0068223557
   112 OT SD       0.15E+00    0.7     0.00000140     -1098.7918337708 -1.62E-06
  Decoupling Energy:                                               0.0674990344
  Recoupling Energy:                                              -0.0068222239
   113 OT SD       0.15E+00    0.8     0.00000286     -1098.7918337653  5.50E-09
  Decoupling Energy:                                               0.0675053704
  Recoupling Energy:                                              -0.0068224722
   114 OT DIIS     0.15E+00    0.7     0.00000819     -1098.7918330801  6.85E-07
  Decoupling Energy:                                               0.0675023016
  Recoupling Energy:                                              -0.0068223194
   115 OT DIIS     0.15E+00    0.7     0.00000090     -1098.7918350400 -1.96E-06

  *** SCF run converged in   115 steps ***


  Electronic density on regular grids:       -654.0000008477       -0.0000008477
  Core density on regular grids:              654.9999999993       -0.0000000007
  Total charge density on r-space grids:        0.9999991517
  Total charge density g-space grids:           0.9999991517

  Overlap energy of the core charge distribution:               0.00004213532864
  Self energy of the core charge distribution:              -2459.11679630764229
  Core Hamiltonian energy:                                    751.03827325370924
  Hartree energy:                                            1002.26599849782951
  Exchange-correlation energy:                               -294.03608202288547
  QM/MM Electrostatic energy:                                 -98.94327059637394

  Total energy:                                             -1098.79183504003413
  Decoupling Energy:                                               0.0675042551
  Recoupling Energy:                                              -0.0068223489

 ENERGY| Total FORCE_EVAL ( QMMM ) energy [a.u.]:          -1469.875704551459421

 MD_INI| MD initialization
 MD_INI| Potential energy [hartree]                          -0.146987570455E+04
 MD_INI| Total kinetic energy [hartree]                       0.215076797492E+03
 MD_INI| QM kinetic energy [hartree]                          0.369606607592E+00
 MD_INI| Total temperature [K]                                        300.000000
 MD_INI| QM temperature [K]                                           307.542546
 MD_INI| Cell volume [bohr^3]                                 9.853827160554E+06
 MD_INI| Cell volume [ang^3]                                  1.460186515536E+06
 MD_INI| Cell lengths [bohr]      2.39870119E+02  2.39870119E+02  1.71258698E+02
 MD_INI| Cell lengths [ang]       1.26933800E+02  1.26933800E+02  9.06262000E+01
 MD_INI| Cell angles [deg]        9.00000000E+01  9.00000000E+01  9.00000000E+01

  Translating the system in order to center the QM fragment in the QM box.

 Number of electrons:                                                        654
 Number of occupied orbitals:                                                327
 Number of molecular orbitals:                                               327

 Number of orbital functions:                                               2193
 Number of independent orbital functions:                                   2193

 Extrapolation method: ASPC


 SCF WAVEFUNCTION OPTIMIZATION

  ----------------------------------- OT ---------------------------------------
  Minimizer      : DIIS                : direct inversion
                                         in the iterative subspace
                                         using   7 DIIS vectors
                                         safer DIIS on
  Preconditioner : FULL_ALL            : diagonalization, state selective
  Precond_solver : DEFAULT
  stepsize       :    0.15000000                  energy_gap     :    0.08000000
  eps_taylor     :   0.10000E-15                  max_taylor     :             4
  ----------------------------------- OT ---------------------------------------

  Step     Update method      Time    Convergence         Total energy    Change
  ------------------------------------------------------------------------------
  Decoupling Energy:                                               0.0676685817
  Recoupling Energy:                                              -0.0068237659
     1 OT DIIS     0.15E+00    1.3     0.00038786     -1098.3649187327 -1.10E+03
  Decoupling Energy:                                               0.0674457471
  Recoupling Energy:                                              -0.0068207505
     2 OT DIIS     0.15E+00    0.7     0.00028126     -1098.3740108647 -9.09E-03
  Decoupling Energy:                                               0.0676534557
  Recoupling Energy:                                              -0.0068214054
     3 OT DIIS     0.15E+00    0.7     0.00045485     -1098.3736134717  3.97E-04
  Decoupling Energy:                                               0.0674799907
  Recoupling Energy:                                              -0.0068214003
     4 OT DIIS     0.15E+00    0.7     0.00017690     -1098.3760483709 -2.43E-03
  Decoupling Energy:                                               0.0674311597
  Recoupling Energy:                                              -0.0068207547
     5 OT DIIS     0.15E+00    0.7     0.00005930     -1098.3765467737 -4.98E-04
  Decoupling Energy:                                               0.0674480368
  Recoupling Energy:                                              -0.0068203573
     6 OT DIIS     0.15E+00    0.7     0.00004396     -1098.3765894881 -4.27E-05
  Decoupling Energy:                                               0.0674579539
  Recoupling Energy:                                              -0.0068208249
     7 OT DIIS     0.15E+00    0.7     0.00001585     -1098.3766115424 -2.21E-05
  Decoupling Energy:                                               0.0674444062
  Recoupling Energy:                                              -0.0068207258
     8 OT DIIS     0.15E+00    0.7     0.00000827     -1098.3766176481 -6.11E-06
  Decoupling Energy:                                               0.0674431203
  Recoupling Energy:                                              -0.0068205894
     9 OT DIIS     0.15E+00    0.7     0.00000614     -1098.3766199737 -2.33E-06
  Decoupling Energy:                                               0.0674463644
  Recoupling Energy:                                              -0.0068208243
    10 OT DIIS     0.15E+00    0.7     0.00000529     -1098.3766227360 -2.76E-06
  Decoupling Energy:                                               0.0674354872
  Recoupling Energy:                                              -0.0068206239
    11 OT DIIS     0.15E+00    0.7     0.00000391     -1098.3766253944 -2.66E-06
  Decoupling Energy:                                               0.0674363557
  Recoupling Energy:                                              -0.0068207093
    12 OT DIIS     0.15E+00    0.7     0.00000309     -1098.3766276584 -2.26E-06
  Decoupling Energy:                                               0.0674337806
  Recoupling Energy:                                              -0.0068207256
    13 OT DIIS     0.15E+00    0.7     0.00000291     -1098.3766291390 -1.48E-06
  Decoupling Energy:                                               0.0674334132
  Recoupling Energy:                                              -0.0068207028
    14 OT DIIS     0.15E+00    0.7     0.00000290     -1098.3766299083 -7.69E-07
  Decoupling Energy:                                               0.0674327920
  Recoupling Energy:                                              -0.0068207266
    15 OT DIIS     0.15E+00    0.7     0.00000264     -1098.3766307153 -8.07E-07
  Decoupling Energy:                                               0.0674319908
  Recoupling Energy:                                              -0.0068207300
    16 OT DIIS     0.15E+00    0.7     0.00000242     -1098.3766313719 -6.57E-07
  Decoupling Energy:                                               0.0674326732
  Recoupling Energy:                                              -0.0068207336
    17 OT DIIS     0.15E+00    0.7     0.00000213     -1098.3766319240 -5.52E-07
  Decoupling Energy:                                               0.0674333929
  Recoupling Energy:                                              -0.0068207737
    18 OT DIIS     0.15E+00    0.7     0.00000187     -1098.3766327579 -8.34E-07
  Decoupling Energy:                                               0.0674305865
  Recoupling Energy:                                              -0.0068207157
    19 OT DIIS     0.15E+00    0.7     0.00000170     -1098.3766332719 -5.14E-07
  Decoupling Energy:                                               0.0674312207
  Recoupling Energy:                                              -0.0068207489
    20 OT DIIS     0.15E+00    0.7     0.00000150     -1098.3766338852 -6.13E-07
  Decoupling Energy:                                               0.0674308104
  Recoupling Energy:                                              -0.0068207379
    21 OT DIIS     0.15E+00    0.7     0.00000140     -1098.3766343734 -4.88E-07
  Decoupling Energy:                                               0.0674299896
  Recoupling Energy:                                              -0.0068207237
    22 OT DIIS     0.15E+00    0.7     0.00000141     -1098.3766347272 -3.54E-07
  Decoupling Energy:                                               0.0674290049
  Recoupling Energy:                                              -0.0068207129
    23 OT DIIS     0.15E+00    0.7     0.00000139     -1098.3766350818 -3.55E-07
  Decoupling Energy:                                               0.0674285700
  Recoupling Energy:                                              -0.0068207030
    24 OT DIIS     0.15E+00    0.7     0.00000135     -1098.3766353464 -2.65E-07
  Decoupling Energy:                                               0.0674284036
  Recoupling Energy:                                              -0.0068206934
    25 OT DIIS     0.15E+00    0.7     0.00000126     -1098.3766356485 -3.02E-07
  Decoupling Energy:                                               0.0674278941
  Recoupling Energy:                                              -0.0068206887
    26 OT DIIS     0.15E+00    0.7     0.00000115     -1098.3766360114 -3.63E-07
  Decoupling Energy:                                               0.0674264004
  Recoupling Energy:                                              -0.0068206538
    27 OT DIIS     0.15E+00    0.7     0.00000110     -1098.3766362314 -2.20E-07
  Decoupling Energy:                                               0.0674262819
  Recoupling Energy:                                              -0.0068206577
    28 OT DIIS     0.15E+00    0.7     0.00000104     -1098.3766364857 -2.54E-07
  Decoupling Energy:                                               0.0674260727
  Recoupling Energy:                                              -0.0068206467
    29 OT DIIS     0.15E+00    0.7     0.00000101     -1098.3766367369 -2.51E-07
  Decoupling Energy:                                               0.0674256117
  Recoupling Energy:                                              -0.0068206358
    30 OT DIIS     0.15E+00    0.7     0.00000101     -1098.3766369754 -2.38E-07
  Decoupling Energy:                                               0.0674251629
  Recoupling Energy:                                              -0.0068206300
    31 OT DIIS     0.15E+00    0.7     0.00000101     -1098.3766372169 -2.42E-07
  Decoupling Energy:                                               0.0674251517
  Recoupling Energy:                                              -0.0068206264
    32 OT DIIS     0.15E+00    0.7     0.00000099     -1098.3766373926 -1.76E-07

  *** SCF run converged in    32 steps ***


  Electronic density on regular grids:       -654.0000005662       -0.0000005662
  Core density on regular grids:              654.9999999988       -0.0000000012
  Total charge density on r-space grids:        0.9999994326
  Total charge density g-space grids:           0.9999994326

  Overlap energy of the core charge distribution:               0.00004332475917
  Self energy of the core charge distribution:              -2459.11679630764229
  Core Hamiltonian energy:                                    750.78618675807968
  Hartree energy:                                            1002.45030822054423
  Exchange-correlation energy:                               -293.96934595238832
  QM/MM Electrostatic energy:                                 -98.52703343591679

  Total energy:                                             -1098.37663739256436
  Decoupling Energy:                                               0.0674253558
  Recoupling Energy:                                              -0.0068206266

 ENERGY| Total FORCE_EVAL ( QMMM ) energy [a.u.]:          -1447.997668665962919

 MD| ***************************************************************************
 MD| Step number                                                               1
 MD| Time [fs]                                                          1.000000
 MD| Conserved quantity [hartree]                            -0.124929046419E+04
 MD| ---------------------------------------------------------------------------
 MD|                                          Instantaneous             Averages
 MD| CPU time per MD step [s]                    183.574246           183.574246
 MD| Energy drift per atom [K]           0.115251059021E+02   0.000000000000E+00
 MD| Potential energy [hartree]         -0.144799766867E+04  -0.144799766867E+04
 MD| Total kinetic energy [hartree]      0.198707204478E+03   0.198707204478E+03
 MD| QM kinetic energy [hartree]         0.373152772283E+00   0.373152772283E+00
 MD| Total temperature [K]                       277.166863           277.166863
 MD| QM temperature [K]                          310.493242           310.493242
 MD| ***************************************************************************

  Translating the system in order to center the QM fragment in the QM box.

 Number of electrons:                                                        654
 Number of occupied orbitals:                                                327
 Number of molecular orbitals:                                               327

 Number of orbital functions:                                               2193
 Number of independent orbital functions:                                   2193

 Extrapolation method: ASPC


 SCF WAVEFUNCTION OPTIMIZATION

  ----------------------------------- OT ---------------------------------------
  Minimizer      : DIIS                : direct inversion
                                         in the iterative subspace
                                         using   7 DIIS vectors
                                         safer DIIS on
  Preconditioner : FULL_ALL            : diagonalization, state selective
  Precond_solver : DEFAULT
  stepsize       :    0.15000000                  energy_gap     :    0.08000000
  eps_taylor     :   0.10000E-15                  max_taylor     :             4
  ----------------------------------- OT ---------------------------------------

  Step     Update method      Time    Convergence         Total energy    Change
  ------------------------------------------------------------------------------
  Decoupling Energy:                                               0.0674087714
  Recoupling Energy:                                              -0.0068195670
     1 OT DIIS     0.15E+00    1.3     0.00014519     -1097.1103377358 -1.10E+03
  Decoupling Energy:                                               0.0673603486
  Recoupling Energy:                                              -0.0068180698
     2 OT DIIS     0.15E+00    0.7     0.00010325     -1097.1115408731 -1.20E-03
  Decoupling Energy:                                               0.0674395827
  Recoupling Energy:                                              -0.0068200469
     3 OT DIIS     0.15E+00    0.7     0.00014074     -1097.1115712488 -3.04E-05
  Decoupling Energy:                                               0.0673879003
  Recoupling Energy:                                              -0.0068185925
     4 OT DIIS     0.15E+00    0.7     0.00007183     -1097.1118082599 -2.37E-04
  Decoupling Energy:                                               0.0673954065
  Recoupling Energy:                                              -0.0068183911
     5 OT DIIS     0.15E+00    0.7     0.00003196     -1097.1118771695 -6.89E-05
  Decoupling Energy:                                               0.0674105971
  Recoupling Energy:                                              -0.0068193003
     6 OT DIIS     0.15E+00    0.7     0.00001255     -1097.1118919141 -1.47E-05
  Decoupling Energy:                                               0.0673971021
  Recoupling Energy:                                              -0.0068186949
     7 OT DIIS     0.15E+00    0.7     0.00000811     -1097.1118946154 -2.70E-06
  Decoupling Energy:                                               0.0674024256
  Recoupling Energy:                                              -0.0068187641
     8 OT DIIS     0.15E+00    0.7     0.00000657     -1097.1118959620 -1.35E-06
  Decoupling Energy:                                               0.0674065711
  Recoupling Energy:                                              -0.0068189107
     9 OT DIIS     0.15E+00    0.7     0.00000358     -1097.1118969177 -9.56E-07
  Decoupling Energy:                                               0.0674111589
  Recoupling Energy:                                              -0.0068188891
    10 OT DIIS     0.15E+00    0.7     0.00000297     -1097.1118982388 -1.32E-06
  Decoupling Energy:                                               0.0674154491
  Recoupling Energy:                                              -0.0068189176
    11 OT DIIS     0.15E+00    0.7     0.00000243     -1097.1118995458 -1.31E-06
  Decoupling Energy:                                               0.0674242634
  Recoupling Energy:                                              -0.0068189805
    12 OT DIIS     0.15E+00    0.7     0.00000213     -1097.1119007418 -1.20E-06
  Decoupling Energy:                                               0.0674287046
  Recoupling Energy:                                              -0.0068190076
    13 OT DIIS     0.15E+00    0.7     0.00000223     -1097.1119014176 -6.76E-07
  Decoupling Energy:                                               0.0674307659
  Recoupling Energy:                                              -0.0068190347
    14 OT DIIS     0.15E+00    0.7     0.00000192     -1097.1119018034 -3.86E-07
  Decoupling Energy:                                               0.0674335335
  Recoupling Energy:                                              -0.0068190148
    15 OT DIIS     0.15E+00    0.7     0.00000181     -1097.1119023568 -5.53E-07
  Decoupling Energy:                                               0.0674373517
  Recoupling Energy:                                              -0.0068190772
    16 OT DIIS     0.15E+00    0.7     0.00000186     -1097.1119027290 -3.72E-07
  Decoupling Energy:                                               0.0674391080
  Recoupling Energy:                                              -0.0068191108
    17 OT DIIS     0.15E+00    0.8     0.00000164     -1097.1119029961 -2.67E-07
  Decoupling Energy:                                               0.0674412094
  Recoupling Energy:                                              -0.0068190909
    18 OT DIIS     0.15E+00    0.7     0.00000137     -1097.1119035062 -5.10E-07
  Decoupling Energy:                                               0.0674429050
  Recoupling Energy:                                              -0.0068191221
    19 OT DIIS     0.15E+00    0.7     0.00000126     -1097.1119038519 -3.46E-07
  Decoupling Energy:                                               0.0674442982
  Recoupling Energy:                                              -0.0068191307
    20 OT DIIS     0.15E+00    0.7     0.00000119     -1097.1119042574 -4.06E-07
  Decoupling Energy:                                               0.0674445646
  Recoupling Energy:                                              -0.0068191316
    21 OT DIIS     0.15E+00    0.7     0.00000120     -1097.1119045708 -3.13E-07
  Decoupling Energy:                                               0.0674440781
  Recoupling Energy:                                              -0.0068191331
    22 OT DIIS     0.15E+00    0.7     0.00000119     -1097.1119047958 -2.25E-07
  Decoupling Energy:                                               0.0674432086
  Recoupling Energy:                                              -0.0068191135
    23 OT DIIS     0.15E+00    0.7     0.00000113     -1097.1119051205 -3.25E-07
  Decoupling Energy:                                               0.0674431185
  Recoupling Energy:                                              -0.0068191266
    24 OT DIIS     0.15E+00    0.7     0.00000116     -1097.1119053684 -2.48E-07
  Decoupling Energy:                                               0.0674421343
  Recoupling Energy:                                              -0.0068191222
    25 OT DIIS     0.15E+00    0.7     0.00000112     -1097.1119055899 -2.21E-07
  Decoupling Energy:                                               0.0674408150
  Recoupling Energy:                                              -0.0068190934
    26 OT DIIS     0.15E+00    0.7     0.00000102     -1097.1119058986 -3.09E-07
  Decoupling Energy:                                               0.0674399049
  Recoupling Energy:                                              -0.0068191000
    27 OT DIIS     0.15E+00    0.7     0.00000112     -1097.1119061874 -2.89E-07
  Decoupling Energy:                                               0.0674395727
  Recoupling Energy:                                              -0.0068190959
    28 OT DIIS     0.15E+00    0.7     0.00000098     -1097.1119062427 -5.54E-08

  *** SCF run converged in    28 steps ***


  Electronic density on regular grids:       -654.0000002644       -0.0000002644
  Core density on regular grids:              654.9999999993       -0.0000000007
  Total charge density on r-space grids:        0.9999997349
  Total charge density g-space grids:           0.9999997349

  Overlap energy of the core charge distribution:               0.00004731806325
  Self energy of the core charge distribution:              -2459.11679630764229
  Core Hamiltonian energy:                                    750.43690766938732
  Hartree energy:                                            1002.71670897695071
  Exchange-correlation energy:                               -293.87544461909550
  QM/MM Electrostatic energy:                                 -97.27332928039797

  Total energy:                                             -1097.11190624273468
  Decoupling Energy:                                               0.0674380184
  Recoupling Energy:                                              -0.0068190789

 ENERGY| Total FORCE_EVAL ( QMMM ) energy [a.u.]:          -1445.975610952350507

 MD| ***************************************************************************
 MD| Step number                                                               2
 MD| Time [fs]                                                          2.000000
 MD| Conserved quantity [hartree]                            -0.125000601139E+04
 MD| ---------------------------------------------------------------------------
 MD|                                          Instantaneous             Averages
 MD| CPU time per MD step [s]                     51.222103           117.398174
 MD| Energy drift per atom [K]           0.100279936556E+02   0.501399682782E+01
 MD| Potential energy [hartree]         -0.144597561095E+04  -0.144698663981E+04
 MD| Total kinetic energy [hartree]      0.195969599562E+03   0.197338402020E+03
 MD| QM kinetic energy [hartree]         0.375000107197E+00   0.374076439740E+00
 MD| Total temperature [K]                       273.348314           275.257588
 MD| QM temperature [K]                          312.030374           311.261808
 MD| ***************************************************************************

  Translating the system in order to center the QM fragment in the QM box.

 Number of electrons:                                                        654
 Number of occupied orbitals:                                                327
 Number of molecular orbitals:                                               327

 Number of orbital functions:                                               2193
 Number of independent orbital functions:                                   2193

 Extrapolation method: ASPC


 SCF WAVEFUNCTION OPTIMIZATION

  ----------------------------------- OT ---------------------------------------
  Minimizer      : DIIS                : direct inversion
                                         in the iterative subspace
                                         using   7 DIIS vectors
                                         safer DIIS on
  Preconditioner : FULL_ALL            : diagonalization, state selective
  Precond_solver : DEFAULT
  stepsize       :    0.15000000                  energy_gap     :    0.08000000
  eps_taylor     :   0.10000E-15                  max_taylor     :             4
  ----------------------------------- OT ---------------------------------------

  Step     Update method      Time    Convergence         Total energy    Change
  ------------------------------------------------------------------------------
  Decoupling Energy:                                               0.0675533416
  Recoupling Energy:                                              -0.0068193284
     1 OT DIIS     0.15E+00    1.3     0.00011068     -1095.1861427582 -1.10E+03
  Decoupling Energy:                                               0.0674828547
  Recoupling Energy:                                              -0.0068161213
     2 OT DIIS     0.15E+00    0.7     0.00009180     -1095.1868076763 -6.65E-04
  Decoupling Energy:                                               0.0675255653
  Recoupling Energy:                                              -0.0068195335
     3 OT DIIS     0.15E+00    0.7     0.00012657     -1095.1867967177  1.10E-05
  Decoupling Energy:                                               0.0675625593
  Recoupling Energy:                                              -0.0068188740
     4 OT DIIS     0.15E+00    0.7     0.00005634     -1095.1869795800 -1.83E-04
  Decoupling Energy:                                               0.0675100088
  Recoupling Energy:                                              -0.0068172536
     5 OT DIIS     0.15E+00    0.7     0.00003097     -1095.1870151473 -3.56E-05
  Decoupling Energy:                                               0.0675174012
  Recoupling Energy:                                              -0.0068179643
     6 OT DIIS     0.15E+00    0.7     0.00000933     -1095.1870288823 -1.37E-05
  Decoupling Energy:                                               0.0675224328
  Recoupling Energy:                                              -0.0068178964
     7 OT DIIS     0.15E+00    0.7     0.00000746     -1095.1870299985 -1.12E-06
  Decoupling Energy:                                               0.0675214665
  Recoupling Energy:                                              -0.0068178627
     8 OT DIIS     0.15E+00    0.7     0.00000372     -1095.1870309051 -9.07E-07
  Decoupling Energy:                                               0.0675208969
  Recoupling Energy:                                              -0.0068178973
     9 OT DIIS     0.15E+00    0.7     0.00000225     -1095.1870313540 -4.49E-07
  Decoupling Energy:                                               0.0675212863
  Recoupling Energy:                                              -0.0068178619
    10 OT DIIS     0.15E+00    0.7     0.00000191     -1095.1870318405 -4.86E-07
  Decoupling Energy:                                               0.0675235701
  Recoupling Energy:                                              -0.0068178975
    11 OT DIIS     0.15E+00    0.7     0.00000164     -1095.1870324097 -5.69E-07
  Decoupling Energy:                                               0.0675241244
  Recoupling Energy:                                              -0.0068178675
    12 OT DIIS     0.15E+00    0.7     0.00000156     -1095.1870328724 -4.63E-07
  Decoupling Energy:                                               0.0675254280
  Recoupling Energy:                                              -0.0068178813
    13 OT DIIS     0.15E+00    0.7     0.00000160     -1095.1870331886 -3.16E-07
  Decoupling Energy:                                               0.0675272122
  Recoupling Energy:                                              -0.0068179051
    14 OT DIIS     0.15E+00    0.8     0.00000132     -1095.1870333927 -2.04E-07
  Decoupling Energy:                                               0.0675281740
  Recoupling Energy:                                              -0.0068178838
    15 OT DIIS     0.15E+00    0.7     0.00000125     -1095.1870336261 -2.33E-07
  Decoupling Energy:                                               0.0675291626
  Recoupling Energy:                                              -0.0068178956
    16 OT DIIS     0.15E+00    0.7     0.00000122     -1095.1870338291 -2.03E-07
  Decoupling Energy:                                               0.0675300182
  Recoupling Energy:                                              -0.0068179091
    17 OT DIIS     0.15E+00    0.7     0.00000107     -1095.1870339713 -1.42E-07
  Decoupling Energy:                                               0.0675312544
  Recoupling Energy:                                              -0.0068178969
    18 OT DIIS     0.15E+00    0.7     0.00000096     -1095.1870342241 -2.53E-07

  *** SCF run converged in    18 steps ***


  Electronic density on regular grids:       -654.0000000154       -0.0000000154
  Core density on regular grids:              654.9999999996       -0.0000000004
  Total charge density on r-space grids:        0.9999999842
  Total charge density g-space grids:           0.9999999842

  Overlap energy of the core charge distribution:               0.00004961137497
  Self energy of the core charge distribution:              -2459.11679630764229
  Core Hamiltonian energy:                                    750.02608360930503
  Hartree energy:                                            1003.02378267861366
  Exchange-correlation energy:                               -293.76776774029747
  QM/MM Electrostatic energy:                                 -95.35238607545097

  Total energy:                                             -1095.18703422409726
  Decoupling Energy:                                               0.0675326293
  Recoupling Energy:                                              -0.0068179128

 ENERGY| Total FORCE_EVAL ( QMMM ) energy [a.u.]:          -1460.415579751762380

 MD| ***************************************************************************
 MD| Step number                                                               3
 MD| Time [fs]                                                          3.000000
 MD| Conserved quantity [hartree]                            -0.125224647680E+04
 MD| ---------------------------------------------------------------------------
 MD|                                          Instantaneous             Averages
 MD| CPU time per MD step [s]                     45.111151            93.302500
 MD| Energy drift per atom [K]           0.534035292474E+01   0.512278219346E+01
 MD| Potential energy [hartree]         -0.146041557975E+04  -0.145146295312E+04
 MD| Total kinetic energy [hartree]      0.208169102947E+03   0.200948635662E+03
 MD| QM kinetic energy [hartree]         0.389729408938E+00   0.379294096139E+00
 MD| Total temperature [K]                       290.364798           280.293325
 MD| QM temperature [K]                          324.286342           315.603319
 MD| ***************************************************************************

  Translating the system in order to center the QM fragment in the QM box.

 Number of electrons:                                                        654
 Number of occupied orbitals:                                                327
 Number of molecular orbitals:                                               327

 Number of orbital functions:                                               2193
 Number of independent orbital functions:                                   2193

 Extrapolation method: ASPC


 SCF WAVEFUNCTION OPTIMIZATION

  ----------------------------------- OT ---------------------------------------
  Minimizer      : DIIS                : direct inversion
                                         in the iterative subspace
                                         using   7 DIIS vectors
                                         safer DIIS on
  Preconditioner : FULL_ALL            : diagonalization, state selective
  Precond_solver : DEFAULT
  stepsize       :    0.15000000                  energy_gap     :    0.08000000
  eps_taylor     :   0.10000E-15                  max_taylor     :             4
  ----------------------------------- OT ---------------------------------------

  Step     Update method      Time    Convergence         Total energy    Change
  ------------------------------------------------------------------------------
  Decoupling Energy:                                               0.0677315302
  Recoupling Energy:                                              -0.0068195198
     1 OT DIIS     0.15E+00    1.3     0.00008419     -1092.7816097896 -1.09E+03
  Decoupling Energy:                                               0.0676141002
  Recoupling Energy:                                              -0.0068141667
     2 OT DIIS     0.15E+00    0.7     0.00009953     -1092.7819020913 -2.92E-04
  Decoupling Energy:                                               0.0676505819
  Recoupling Energy:                                              -0.0068178721
     3 OT DIIS     0.15E+00    0.7     0.00009201     -1092.7819647725 -6.27E-05
  Decoupling Energy:                                               0.0677062266
  Recoupling Energy:                                              -0.0068185967
     4 OT DIIS     0.15E+00    0.7     0.00005039     -1092.7820486909 -8.39E-05
  Decoupling Energy:                                               0.0676509210
  Recoupling Energy:                                              -0.0068162290
     5 OT DIIS     0.15E+00    0.7     0.00002281     -1092.7820810133 -3.23E-05
  Decoupling Energy:                                               0.0676472922
  Recoupling Energy:                                              -0.0068166472
     6 OT DIIS     0.15E+00    0.7     0.00000797     -1092.7820890831 -8.07E-06
  Decoupling Energy:                                               0.0676530753
  Recoupling Energy:                                              -0.0068167056
     7 OT DIIS     0.15E+00    0.7     0.00000582     -1092.7820900300 -9.47E-07
  Decoupling Energy:                                               0.0676502230
  Recoupling Energy:                                              -0.0068166356
     8 OT DIIS     0.15E+00    0.7     0.00000316     -1092.7820906361 -6.06E-07
  Decoupling Energy:                                               0.0676475385
  Recoupling Energy:                                              -0.0068165804
     9 OT DIIS     0.15E+00    0.7     0.00000209     -1092.7820910465 -4.10E-07
[...]
 flops    32 x    32 x     5         149126144000       0.0%      0.0%    100.0%
 flops     5 x    32 x    32         185278361600       0.0%      0.0%    100.0%
 flops    13 x    13 x    32         201007788800       0.0%      0.0%    100.0%
 flops    32 x    32 x    13         328295219200       0.0%      0.0%    100.0%
 flops     5 x    32 x     5         340244432000       0.0%      0.0%    100.0%
 flops    13 x    32 x    32         407882874880       0.0%      0.0%    100.0%
 flops    13 x    32 x     5         748647244800       0.0%      0.0%    100.0%
 flops     5 x    32 x    13         748647244800       0.0%      0.0%    100.0%
 flops    13 x    32 x    13        1636056930560       0.0%      0.0%    100.0%
 flops inhomo. stacks                           0       0.0%      0.0%      0.0%
 flops total                         5.223987E+12       0.0%      0.0%    100.0%
 flops max/rank                    254.639015E+09       0.0%      0.0%    100.0%
 matmuls inhomo. stacks                         0       0.0%      0.0%      0.0%
 matmuls total                          969389322       0.0%      0.0%    100.0%
 number of processed stacks              27722178       0.0%      0.0%    100.0%
 average stack size                                     0.0      63.7      35.0
 marketing flops                     5.682660E+12
 -------------------------------------------------------------------------------
 # multiplications                           5531
 max memory usage/rank               1.869173E+09
 # max total images/rank                        2
 # max 3D layers                                1
 # MPI messages exchanged                 2300896
 MPI messages size (bytes):
  total size                       471.805428E+09
  min size                           0.000000E+00
  max size                           1.236480E+06
  average size                     205.052906E+03
 MPI breakdown and total messages size (bytes):
             size <=      128                4088                        0
       128 < size <=     8192              228330               1870479360
      8192 < size <=    32768              669680              13009681240
     32768 < size <=   131072              428622              29160274064
    131072 < size <=  4194304              970176             427748838056
   4194304 < size <= 16777216                   0                        0
  16777216 < size                               0                        0
 -------------------------------------------------------------------------------

 *** WARNING in dbcsr_mm.F:294 :: Using a non-square number of MPI ranks ***
 *** might lead to poor performance. Used ranks: 32 Suggested: 36 64     ***

 -------------------------------------------------------------------------------
 -                                                                             -
 -                      DBCSR MESSAGE PASSING PERFORMANCE                      -
 -                                                                             -
 -------------------------------------------------------------------------------
 ROUTINE             CALLS      AVE VOLUME [Bytes]
 MP_Bcast               41                     12.
 MP_Allreduce        19991                      8.
 MP_Alltoall         17557                  26615.
 MP_ISend           171424                  99525.
 MP_IRecv           171424                  96824.
 -------------------------------------------------------------------------------

 -------------------------------------------------------------------------------
 -                                                                             -
 -                                GRID STATISTICS                              -
 -                                                                             -
 -------------------------------------------------------------------------------
 LP    KERNEL             BACKEND                              COUNT     PERCENT
 3     collocate ortho    GPU                               86074321      24.30%
 3     integrate ortho    GPU                               85298327      24.08%
 2     collocate ortho    GPU                               56030402      15.82%
 2     integrate ortho    GPU                               54583213      15.41%
 4     integrate ortho    GPU                               36255800      10.24%
 4     collocate ortho    GPU                               34935048       9.86%
 5     integrate ortho    GPU                                 902431       0.25%
 0     collocate general  REF                                  56672       0.02%
 1     integrate general  REF                                  56672       0.02%
 -------------------------------------------------------------------------------

 MEMORY| Estimated peak process memory [MiB]                                1844

 -------------------------------------------------------------------------------
 -                                                                             -
 -                         MESSAGE PASSING PERFORMANCE                         -
 -                                                                             -
 -------------------------------------------------------------------------------

 ROUTINE             CALLS      AVE VOLUME [Bytes]
 MP_Group                8
 MP_Bcast            10325                8767352.
 MP_Allreduce         9525                  16854.
 MP_Sync               163
 MP_Alltoall          5380               28030721.
 MP_SendRecv          3052                  72198.
 MP_ISendRecv        33604                  72576.
 MP_Wait             62887
 MP_comm_split          72
 MP_ISend            24779                 790609.
 MP_IRecv            24772                 790631.
 MP_Recv               160                 561408.
 -------------------------------------------------------------------------------


 -------------------------------------------------------------------------------
 -                                                                             -
 -                           R E F E R E N C E S                               -
 -                                                                             -
 -------------------------------------------------------------------------------
 
 CP2K version 8.2, the CP2K developers group (2021).
 CP2K is freely available from https://www.cp2k.org/ .

 Kuehne,Thomas D.; Iannuzzi,Marcella; Del Ben,Mauro;
 Rybkin,Vladimir V.; Seewald,Patrick; Stein,Frederick; Laino,Teodoro;
 Khaliullin,Rustam Z.; Schuett,Ole; Schiffmann,Florian; Golze,Dorothea;
 Wilhelm,Jan; Chulkov,Sergey; Bani-Hashemian,Mohammad Hossein;
 Weber,Valery; Borstnik,Urban; Taillefumier,Mathieu;
 Jakobovits,Alice Shoshana; Lazzaro,Alfio; Pabst,Hans; Mueller,Tiziano;
 Schade,Robert; Guidon,Manuel; Andermatt,Samuel; Holmberg,Nico;
 Schenter,Gregory K.; Hehn,Anna; Bussy,Augustin; Belleflamme,Fabian;
 Tabacchi,Gloria; Gloess,Andreas; Lass,Michael; Bethune,Iain;
 Mundy,Christopher J.; Plessl,Christian; Watkins,Matt;
 VandeVondele,Joost; Krack,Matthias; Hutter,Juerg. 
 The Journal of Chemical Physics, 152 (19), (2020). 
 CP2K: An electronic structure and molecular dynamics software package -
 Quickstep: Efficient and accurate electronic structure calculations.
 https://doi.org/10.1063/5.0007045

 Schuett, Ole; Messmer, Peter; Hutter, Juerg; VandeVondele, Joost. 
 Electronic Structure Calculations on Graphics Processing Units, John
 Wiley & Sons, Ltd, 173-190 (2016). 
 GPU-Accelerated Sparse Matrix-Matrix Multiplication for
 Linear Scaling Density Functional Theory.
 https://doi.org/10.1002/9781118670712.ch8

 Heinecke, A; Henry, G; Hutchinson, M; Pabst, H. 
 Proceedings of Intl. Supercomputing Conference, 981-991 (2016). 
 LIBXSMM: Accelerating Small Matrix Multiplications
 by Runtime Code Generation.
 https://doi.org/10.1109/SC.2016.83

 Borstnik, U; VandeVondele, J; Weber, V; Hutter, J. 
 PARALLEL COMPUTING, 40 (5-6), 47-58 (2014). 
 Sparse matrix multiplication: The distributed block-compressed sparse
 row library.
 https://doi.org/10.1016/j.parco.2014.03.012

 Hutter, J; Iannuzzi, M; Schiffmann, F; VandeVondele, J. 
 WIREs Comput Mol Sci., 4 (1), 15-25 (2014). 
 CP2K: atomistic simulations of condensed matter systems.
 https://doi.org/10.1002/wcms.1159

 Marek, A; Blum, V; Johanni, R; Havu, V; Lang, B; Auckenthaler, T;
 Heinecke, A; Bungartz, H; Lederer, H. 
 Journal of Physics: Condensed Matter, 26 (21), (2014). 
 The ELPA library: scalable parallel eigenvalue solutions for
 electronic structure
 theory and computational science.
 https://doi.org/10.1088/0953-8984/26/21/213201

 VandeVondele, J; Hutter, J. 
 JOURNAL OF CHEMICAL PHYSICS, 127 (11), 114105 (2007). 
 Gaussian basis sets for accurate calculations on molecular systems in
 gas and condensed phases.
 https://doi.org/10.1063/1.2770708

 Kuhne, TD; Krack, M; Mohamed, FR; Parrinello, M. 
 PHYSICAL REVIEW LETTERS, 98 (6), 066401 (2007). 
 Efficient and accurate Car-Parrinello-like approach to
 Born-Oppenheimer molecular dynamics.
 https://doi.org/10.1103/PhysRevLett.98.066401

 Laino, T; Mohamed, F; Laio, A; Parrinello, M. 
 JOURNAL OF CHEMICAL THEORY AND COMPUTATION, 2 (5), 1370-1378 (2006). 
 An efficient linear-scaling electrostatic coupling for treating
 periodic boundary conditions in QM/MM simulations.
 https://doi.org/10.1021/ct6001169

 Laino, T; Mohamed, F; Laio, A; Parrinello, M. 
 JOURNAL OF CHEMICAL THEORY AND COMPUTATION, 1 (6), 1176-1184 (2005). 
 An efficient real space multigrid QM/MM electrostatic coupling.
 https://doi.org/10.1021/ct050123f

 Krack, M. 
 THEORETICAL CHEMISTRY ACCOUNTS, 114 (1-3), 145-152 (2005). 
 Pseudopotentials for H to Kr optimized for gradient-corrected
 exchange-correlation functionals.
 https://doi.org/10.1007/s00214-005-0655-y

 VandeVondele, J; Krack, M; Mohamed, F; Parrinello, M; Chassaing, T;
 Hutter, J. COMPUTER PHYSICS COMMUNICATIONS, 167 (2), 103-128 (2005). 
 QUICKSTEP: Fast and accurate density functional calculations using a
 mixed Gaussian and plane waves approach.
 https://doi.org/10.1016/j.cpc.2004.12.014

 Frigo, M; Johnson, SG. 
 PROCEEDINGS OF THE IEEE, 93 (2), 216-231 (2005). 
 The design and implementation of FFTW3.
 https://doi.org/10.1109/JPROC.2004.840301

 Kolafa, J. 
 JOURNAL OF COMPUTATIONAL CHEMISTRY, 25 (3), 335-342 (2004). 
 Time-reversible always stable predictor-corrector method for molecular dynamics of polarizable molecules.
 https://doi.org/10.1002/jcc.10385

 VandeVondele, J; Hutter, J. 
 JOURNAL OF CHEMICAL PHYSICS, 118 (10), 4365-4369 (2003). 
 An efficient orbital transformation method for electronic structure
 calculations.
 https://doi.org/10.1063/1.1543154

 Hartwigsen, C; Goedecker, S; Hutter, J. 
 PHYSICAL REVIEW B, 58 (7), 3641-3662 (1998). 
 Relativistic separable dual-space Gaussian pseudopotentials from H to Rn.
 https://doi.org/10.1103/PhysRevB.58.3641

 Lippert, G; Hutter, J; Parrinello, M. 
 MOLECULAR PHYSICS, 92 (3), 477-487 (1997). 
 A hybrid Gaussian and plane wave density functional scheme.
 https://doi.org/10.1080/002689797170220

 Goedecker, S; Teter, M; Hutter, J. 
 PHYSICAL REVIEW B, 54 (3), 1703-1710 (1996). 
 Separable dual-space Gaussian pseudopotentials.
 https://doi.org/10.1103/PhysRevB.54.1703

 ESSMANN, U; PERERA, L; BERKOWITZ, ML; DARDEN, T; LEE, H; PEDERSEN, LG. 
 JOURNAL OF CHEMICAL PHYSICS, 103 (19), 8577-8593 (1995). 
 A SMOOTH PARTICLE MESH EWALD METHOD.
 https://doi.org/10.1063/1.470117

 BLOCHL, PE. 
 JOURNAL OF CHEMICAL PHYSICS, 103 (17), 7422-7428 (1995). 
 ELECTROSTATIC DECOUPLING OF PERIODIC IMAGES OF PLANE-WAVE-EXPANDED
 DENSITIES AND DERIVED ATOMIC POINT CHARGES.
 https://doi.org/10.1063/1.470314

 BECKE, AD. PHYSICAL REVIEW A, 38 (6), 3098-3100 (1988). 
 DENSITY-FUNCTIONAL EXCHANGE-ENERGY APPROXIMATION WITH CORRECT
 ASYMPTOTIC-BEHAVIOR.
 https://doi.org/10.1103/PhysRevA.38.3098

 LEE, CT; YANG, WT; PARR, RG. 
 PHYSICAL REVIEW B, 37 (2), 785-789 (1988). 
 DEVELOPMENT OF THE COLLE-SALVETTI CORRELATION-ENERGY FORMULA INTO A
 FUNCTIONAL OF THE ELECTRON-DENSITY.
 https://doi.org/10.1103/PhysRevB.37.785


 -------------------------------------------------------------------------------
 -                                                                             -
 -                                T I M I N G                                  -
 -                                                                             -
 -------------------------------------------------------------------------------
 SUBROUTINE                       CALLS  ASD         SELF TIME        TOTAL TIME
                                MAXIMUM       AVERAGE  MAXIMUM  AVERAGE  MAXIMUM
 CP2K                                 1  1.0    0.247    0.289  484.841  484.843
 qs_mol_dyn_low                       1  2.0    0.006    0.007  425.946  427.502
 velocity_verlet                      6  3.0    0.020    0.022  295.701  295.788
 qs_forces                            7  3.9    0.001    0.001  223.554  223.560
 qs_energies                          7  4.9    0.000    0.000  217.316  217.334
 scf_env_do_scf                       7  5.9    0.001    0.001  204.103  204.104
 scf_env_do_scf_inner_loop          264  6.6    0.005    0.015  192.417  192.465
 qmmm_el_coupling                     7  3.9    0.000    0.000  136.451  136.500
 qmmm_elec_with_gaussian              7  4.9    0.009    0.010  136.449  136.499
 qmmm_elec_with_gaussian_low          7  5.9    0.000    0.000  108.143  134.902
 rebuild_ks_matrix                  271  8.5    0.001    0.001  114.321  115.629
 qs_ks_build_kohn_sham_matrix       271  9.5    0.032    0.034  114.320  115.628
 qs_ks_update_qs_env                271  7.6    0.002    0.003  109.420  110.690
 qmmm_elec_gaussian_low_G             7  6.9   91.106  106.634   91.106  106.634
 pw_transfer                       5497 12.2    0.313    0.339   70.191   71.074
 dbcsr_multiply_generic            5531 12.7    0.238    0.256   67.055   70.319
 fft_wrap_pw1pw2                   4649 13.2    0.041    0.046   69.305   70.250
 fft_wrap_pw1pw2_150               2995 14.4    0.014    0.015   64.942   66.033
 multiply_cannon                   5531 13.7    0.901    0.976   49.765   60.985
 qs_scf_new_mos                     264  7.6    0.001    0.002   57.704   58.588
 qs_scf_loop_do_ot                  264  8.6    0.002    0.002   57.703   58.587
 multiply_cannon_loop              5531 14.7    1.142    1.242   47.149   58.346
 qmmm_env_create                      1  2.0    7.179    7.421   56.987   56.992
 ot_scf_mini                        264  9.6    0.005    0.006   53.075   53.582
 qs_vxc_create                      271 10.5    0.005    0.005   50.143   50.213
 xc_vxc_pw_create                   271 11.5    1.394    1.451   50.138   50.209
 multiply_cannon_multrec          44248 15.7   11.616   30.004   30.776   49.876
 qmmm_forces                          7  3.9    0.027    0.030   47.905   47.909
 qmmm_forces_with_gaussian            7  4.9    0.018    0.024   35.451   47.027
 fist_init                            1  3.0    0.000    0.000   45.012   45.013
 qmmm_force_with_gaussian_low         7  5.9    0.000    0.000   32.610   44.186
 ot_mini                            264 10.6    0.001    0.002   36.814   38.020
 pw_cuda_c1dr3d_3d_ps              2467 15.8    0.039    0.044   36.899   37.842
 dbcsr_mm_accdrv_process         130068 16.3   18.234   35.507   18.738   36.074
 pw_cuda_r3dc1d_3d_ps              2182 14.6    0.036    0.040   32.346   33.004
 mp_sync                            163 13.7   26.766   32.345   26.766   32.345
 sum_up_and_integrate               271 10.5    0.396    0.419   30.547   30.770
 integrate_v_rspace                 271 11.5    0.007    0.008   30.150   30.359
 qs_rho_update_rho                  271  7.6    0.001    0.001   29.317   29.629
 calculate_rho_elec                 271  8.6    1.027    1.030   29.315   29.627
 qmmm_forces_gaussian_low_R           7  6.9    0.000    0.000   18.764   28.424
 qmmm_forces_with_gaussian_LG         7  7.9   18.764   28.424   18.764   28.424
 force_field_control                  1  4.0    0.000    0.000   27.937   28.349
 qmmm_elec_gaussian_low_R             7  6.9    0.000    0.000   17.037   28.268
 qmmm_elec_with_gaussian_LG           7  7.9   17.037   28.268   17.037   28.268
 mp_waitall_1                    392092 16.6   15.180   25.366   15.180   25.366
 mp_alltoall_z22v                  4649 17.2   22.342   25.140   22.342   25.140
 rdparm_amber_8                       2  6.5   21.030   22.496   24.855   24.998
 density_rs2pw                      271  9.6    0.010    0.011   22.930   23.939
 xc_rho_set_and_dset_create         271 12.5    1.424    1.584   22.969   23.426
 qs_ot_get_derivative               264 11.6    0.002    0.003   22.175   22.695
 multiply_cannon_metrocomm3       44248 15.7    0.086    0.091   10.914   21.425
 qs_ks_ddapc                        271 10.5    0.003    0.004   20.225   20.542
 mp_sum_l                         16864 13.5   11.532   18.718   11.532   18.718
 rs_pw_transfer                    2210 11.9    0.027    0.029   17.556   18.487
 mp_sum_dm                          908  5.1   15.301   18.298   15.301   18.298
 x_to_yz                           2467 16.8    4.586    5.805   16.341   17.896
 topology_control                     1  4.0    0.000    0.000   16.641   17.108
 potential_pw2rs                    271 12.5    0.054    0.060   16.592   16.646
 qmmm_forces_gaussian_low_G           7  6.9   13.846   15.883   13.846   15.883
 mp_sum_d                          9803 11.1   11.141   15.455   11.141   15.455
 force_field_pack                     1  5.0    0.016    0.017   15.003   15.377
 yz_to_x                           2182 15.6    2.975    3.523   13.562   14.688
 cp_ddapc_apply_CD                  271 11.5    0.023    0.433   14.199   14.200
 fist_calc_energy_force               7  3.9    0.057    0.065   13.913   13.927
 ot_diis_step                       264 11.6    0.008    0.008   13.866   13.870
 grid_integrate_task_list           271 12.5    8.374   13.261    8.374   13.261
 read_force_field_amber               1  5.0    0.004    0.005   12.863   13.100
 connectivity_control                 2  4.0    0.000    0.000   12.745   12.852
 pw_cuda_sf                        2467 16.8   12.297   12.805   12.297   12.805
 apply_preconditioner_dbcsr         271 12.6    0.001    0.001   11.285   12.591
 apply_all                          271 13.6    0.021    0.032   11.284   12.590
 pw_cuda_fg                        2182 15.6   11.522   12.270   11.522   12.270
 read_connectivity_amber              1  6.0    0.000    0.000   11.996   12.097
 init_scf_loop                        7  6.9    0.000    0.000   11.631   11.632
 force_nonbond                        7  4.9    7.877   11.405    7.877   11.405
 qs_ot_get_derivative_taylor        207 12.7    0.006    0.006   10.807   11.236
 mp_waitany                       24772 13.9    9.094   10.361    9.094   10.361
 pw_integral_ab                    3707  8.2    6.470    6.651    9.637   10.221
 force_field_pack_ub                  1  6.0    9.601    9.748    9.601    9.748
 -------------------------------------------------------------------------------

 The number of warnings for this run is : 1
 
 -------------------------------------------------------------------------------
  **** **** ******  **  PROGRAM ENDED AT                 2021-07-26 14:50:09.534
 ***** ** ***  *** **   PROGRAM RAN ON                                    r2i4n0
 **    ****   ******    PROGRAM RAN BY                                    hollyj
 ***** **    ** ** **   PROGRAM PROCESS ID                                 67003
  **** **  *******  **  PROGRAM STOPPED IN /lustre/home/w68/hollyj/CP2K/Cirrus/G
                                           PU/cp2kMD/ClC-253-BLYP/6STEPS/8NODES/
                                           36CPN/10THREADS
