 DBCSR| CPU Multiplication driver                                           XSMM
 DBCSR| Multrec recursion limit                                              512
 DBCSR| Multiplication stack size                                          30000
 DBCSR| Maximum elements for images                                    UNLIMITED
 DBCSR| Multiplicative factor virtual images                                   1
 DBCSR| Use multiplication densification                                       F
 DBCSR| Multiplication size stacks                                             3
 DBCSR| Use memory pool for CPU allocation                                     F
 DBCSR| Number of 3D layers                                               SINGLE
 DBCSR| Use MPI memory allocation                                              F
 DBCSR| Use RMA algorithm                                                      F
 DBCSR| Use Communication thread                                               T
 DBCSR| Communication thread load                                             53
 DBCSR| MPI: My node id                                                        0
 DBCSR| MPI: Number of nodes                                                  16
 DBCSR| OMP: Current number of threads                                        10
 DBCSR| OMP: Max number of threads                                            10
 DBCSR| ACC: Number of devices/node                                            4
 DBCSR| ACC: Number of priority stack-buffers                                 40
 DBCSR| ACC: Number of posterior stack-buffers                                80
 DBCSR| ACC: Number of priority streams                                        4
 DBCSR| ACC: Number of posterior streams                                       4
 DBCSR| ACC: Avoid driver after busy                                           F
 DBCSR| ACC: Process inhomogeneous stacks                                      T
 DBCSR| ACC: Min. flop for processing                                          0
 DBCSR| ACC: Min. flop for sorting                                          4000
 DBCSR| ACC: Number of binning bins                                         4096
 DBCSR| ACC: Size of binning bins                                             16
 DBCSR| Split modifier for TAS multiplication algorithm                  1.0E+00


  **** **** ******  **  PROGRAM STARTED AT               2021-07-26 12:21:53.953
 ***** ** ***  *** **   PROGRAM STARTED ON                                r2i7n2
 **    ****   ******    PROGRAM STARTED BY                                hollyj
 ***** **    ** ** **   PROGRAM PROCESS ID                                 12581
  **** **  *******  **  PROGRAM STARTED IN /lustre/home/w68/hollyj/CP2K/Cirrus/G
                                           PU/cp2kMD/CBD_PHY-PBE0/6STEPS/4NODES/
                                           36CPN/10THREADS

 CP2K| version string:                                          CP2K version 8.2
 CP2K| source code revision number:                                  git:310b7ab
 CP2K| cp2kflags: omp libint fftw3 libxc elpa parallel mpi3 scalapack cosma pw_c
 CP2K|            uda xsmm cuda_profiling dbcsr_acc spglib mkl grid_cuda
 CP2K| is freely available from                            https://www.cp2k.org/
 CP2K| Program compiled at                          Thu Jul 22 18:07:58 BST 2021
 CP2K| Program compiled on                                                r2i5n7
 CP2K| Program compiled for                                           Cirrus-gcc
 CP2K| Data directory path       /lustre/home/w68/hollyj/CP2K/v8.2/cp2k-8.2/data
 CP2K| Input file name                                          CBD_PHY-cp2k.inp

 GLOBAL| Force Environment number                                              1
 GLOBAL| Basis set file name                                           HFX_BASIS
 GLOBAL| Potential file name                                           POTENTIAL
 GLOBAL| MM Potential file name                                     MM_POTENTIAL
 GLOBAL| Coordinate file name                                        CBD_PHY.pdb
 GLOBAL| Method name                                                        CP2K
 GLOBAL| Project name                                               CBD_PHY-PBE0
 GLOBAL| Run type                                                             MD
 GLOBAL| FFT library                                                       FFTW3
 GLOBAL| Diagonalization library                                            ELPA
 GLOBAL| Minimum number of eigenvectors for ELPA usage                        16
 GLOBAL| Orthonormality check for eigenvectors                          DISABLED
 GLOBAL| Matrix multiplication library                                     COSMA
 GLOBAL| All-to-all communication in single precision                          F
 GLOBAL| FFTs using library dependent lengths                                  F
 GLOBAL| Grid backend                                                       AUTO
 GLOBAL| Global print level                                                  LOW
 GLOBAL| MPI I/O enabled                                                       T
 GLOBAL| Total number of message passing processes                            16
 GLOBAL| Number of threads for this process                                   10
 GLOBAL| This output is from process                                           0
 GLOBAL| CPU model name                 Intel(R) Xeon(R) Gold 6248 CPU @ 2.50GHz
 GLOBAL| CPUID                                                              1003

 MEMORY| system memory details [Kb]
 MEMORY|                        rank 0           min           max       average
 MEMORY| MemTotal            394535408     394535408     394535408     394535408
 MEMORY| MemFree             386766744     386766744     387166064     387006718
 MEMORY| Buffers                     0             0             0             0
 MEMORY| Cached                1143160        902084       1143160        974127
 MEMORY| Slab                  1012208        933832       1012208        973816
 MEMORY| SReclaimable           186484        175304        186484        180454
 MEMORY| MemLikelyFree       388096388     388096388     388251364     388161299



                      ************* ******** ***********   
                     ************* **********************  
                     ****     **** ****      ***********   
                     ******** ****  *******     ****       
                     *******  ****   *******   ****        
                     ****     ****       ****  ****        
                     ****     **** **********  ****        
                      ****     **** ********    ****       
                     FRONTIERS IN SIMULATION TECHNOLOGY    
                                                           
                        C.J. Mundy, S. Balasubramanian,    
                     Ken Bagchi, J. Hutter, Ari Seitsonen  
                      IFW Kuo, T. Laino, J. VandeVondele   
                                 Version 1.0               

                                                           


 EWALD| Summation is done by:                                               SPME
 EWALD| Alpha parameter [       ANGSTROM^-1]                              0.4000
 EWALD| Real Space Cutoff [          ANGSTROM]                            8.4348
 EWALD| G-space max. Miller index                         80        80        80
 EWALD| Spline interpolation order                                             6

 FORCEFIELD| WARNING: A non Critical ForceField parameter is missing! CP2K GOES!
 FORCEFIELD| Non critical parameters are:Urey-Bradley,Torsions,Impropers, Opbends and 1-4
 FORCEFIELD| All missing parameters will not contribute to the potential energy!
 FORCEFIELD| Activate the print key FF_INFO to have a list of missing parameters

 CHARGE_INFO| Total Charge of the Classical System:                    -0.825808

 SPLINE_INFO| Generating 101926 splines for NONBONDED14 interactions 
              Due to 451 different atomic kinds
  ...10192  ...20384  ...30576  ...40768  ...50960  ...61152  ...71344  ...81536  ...91728  ...101920
 SPLINE_INFO| Number of unique splines computed:            301
 SPLINE_INFO| Done

 SPLINE_INFO| Generating 101926 splines for NONBONDED interactions 
              Due to 451 different atomic kinds
  ...10192  ...20384  ...30576  ...40768  ...50960  ...61152  ...71344  ...81536  ...91728  ...101920
 SPLINE_INFO| Number of unique splines computed:            301
 SPLINE_INFO| Done

 *******************************************************************************
 *******************************************************************************
 **                                                                           **
 **     #####                         ##              ##                      **
 **    ##   ##            ##          ##              ##                      **
 **   ##     ##                       ##            ######                    **
 **   ##     ##  ##   ##  ##   #####  ##  ##   ####   ##    #####    #####    **
 **   ##     ##  ##   ##  ##  ##      ## ##   ##      ##   ##   ##  ##   ##   **
 **   ##  ## ##  ##   ##  ##  ##      ####     ###    ##   ######   ######    **
 **    ##  ###   ##   ##  ##  ##      ## ##      ##   ##   ##       ##        **
 **     #######   #####   ##   #####  ##  ##  ####    ##    #####   ##        **
 **           ##                                                    ##        **
 **                                                                           **
 **                                                ... make the atoms dance   **
 **                                                                           **
 **            Copyright (C) by CP2K developers group (2000-2021)             **
 **                      J. Chem. Phys. 152, 194103 (2020)                    **
 **                                                                           **
 *******************************************************************************


 TOTAL NUMBERS AND MAXIMUM NUMBERS

  Total number of            - Atomic kinds:                                   5
                             - Atoms:                                         68
                             - Shell sets:                                   340
                             - Shells:                                       445
                             - Primitive Cartesian functions:                476
                             - Cartesian basis functions:                   1137
                             - Spherical basis functions:                   1067

  Maximum angular momentum of- Orbital basis functions:                        2
                             - Local part of the GTH pseudopotential:          2
                             - Non-local part of the GTH pseudopotential:      0


 SCF PARAMETERS         Density guess:                                   RESTART
                        --------------------------------------------------------
                        max_scf:                                              30
                        max_scf_history:                                       0
                        max_diis:                                              4
                        --------------------------------------------------------
                        eps_scf:                                        1.00E-06
                        eps_scf_history:                                0.00E+00
                        eps_diis:                                       1.00E-01
                        eps_eigval:                                     1.00E-05
                        --------------------------------------------------------
                        level_shift [a.u.]:                                 0.00
                        --------------------------------------------------------
                        Outer loop SCF in use 
                        No variables optimised in outer loop
                        eps_scf                                         1.00E-06
                        max_scf                                               20
                        No outer loop optimization
                        step_size                                       5.00E-01

 *******************************************************************************
 *******************************************************************************
 **                                                                           **
 **             #######  ##     ## ##     ## ##     ##                        **
 **            ##     ## ###   ### ###   ### ###   ###                        **
 **            ##     ## #### #### #### #### #### ####                        **
 **            ##     ## ## ### ## ## ### ## ## ### ##                        **
 **            ##  ## ## ##     ## ##     ## ##     ##                        **
 **            ##    ##  ##     ## ##     ## ##     ##  T.Laino and F.Mohamed **
 **             ##### ## ##     ## ##     ## ##     ##  2005 - 2015           **
 **                                                                           **
 **                                                     Calculation Started.. **
 *******************************************************************************
 *******************************************************************************

 MD_PAR| Molecular dynamics protocol (MD input parameters)
 MD_PAR| Ensemble type                                                       NVE
 MD_PAR| Number of time steps                                                  6
 MD_PAR| Time step [fs]                                                 1.000000
 MD_PAR| Temperature [K]                                              300.000000
 MD_PAR| Temperature tolerance [K]                                      0.000000
 MD_PAR| Print MD information every                                    1 step(s)
 MD_PAR| File type   Print frequency [steps]                          File names
 MD_PAR| Coordinates          1                           CBD_PHY-PBE0-pos-1.xyz
 MD_PAR| Velocities           1                           CBD_PHY-PBE0-vel-1.xyz
 MD_PAR| Energies             1                              CBD_PHY-PBE0-1.ener
 MD_PAR| Dump                20                           CBD_PHY-PBE0-1.restart

 ROT| Rotational analysis information
 ROT| Principal axes and moments of inertia [a.u.]
 ROT|                           1                   2                   3
 ROT| Eigenvalues      7.21623863333E+03   6.33320921951E+08   6.33322441751E+08
 ROT|      x              0.594439314747      0.755242083864      0.276136371824
 ROT|      y             -0.607310314858      0.646719561172     -0.461441210410
 ROT|      z             -0.527082614540      0.106598329996      0.843101840522
 ROT| Number of rotovibrational vectors                                        6

 DOF| Calculation of degrees of freedom
 DOF| Number of atoms                                                     167923
 DOF| Number of intramolecular constraints                                     0
 DOF| Number of intermolecular constraints                                     0
 DOF| Invariants (translations + rotations)                                    3
 DOF| Degrees of freedom                                                  503766

 DOF| Restraints information
 DOF| Number of intramolecular restraints                                      0
 DOF| Number of intermolecular restraints                                      0

 MD_VEL| Velocities initialization
 MD_VEL| Initial temperature [K]                                      300.000000
 MD_VEL| COM velocity            -0.0000000000     0.0000000000     0.0000000000

  Translating the system in order to center the QM fragment in the QM box.

 Number of electrons:                                                        180
 Number of occupied orbitals:                                                 90
 Number of molecular orbitals:                                                90

 Number of orbital functions:                                               1067
 Number of independent orbital functions:                                   1067

 Extrapolation method: initial_guess


 SCF WAVEFUNCTION OPTIMIZATION

  ----------------------------------- OT ---------------------------------------
  Minimizer      : DIIS                : direct inversion
                                         in the iterative subspace
                                         using   7 DIIS vectors
                                         safer DIIS on
  Preconditioner : FULL_ALL            : diagonalization, state selective
  Precond_solver : DEFAULT
  stepsize       :    0.15000000                  energy_gap     :    0.08000000
  eps_taylor     :   0.10000E-15                  max_taylor     :             4
  ----------------------------------- OT ---------------------------------------

  Step     Update method      Time    Convergence         Total energy    Change
  ------------------------------------------------------------------------------
  Decoupling Energy:                                               0.0370647021
  Recoupling Energy:                                              -0.0063741479
     1 OT DIIS     0.15E+00   12.9     0.00129057      -255.9257316490 -2.56E+02
  Decoupling Energy:                                               0.0370576004
  Recoupling Energy:                                              -0.0063740314
     2 OT DIIS     0.15E+00    1.8     0.00057761      -255.9419521948 -1.62E-02
  Decoupling Energy:                                               0.0369596417
  Recoupling Energy:                                              -0.0063730135
     3 OT DIIS     0.15E+00    1.8     0.00038348      -255.9451217290 -3.17E-03
  Decoupling Energy:                                               0.0369795470
  Recoupling Energy:                                              -0.0063732416
     4 OT DIIS     0.15E+00    1.8     0.00009866      -255.9458275741 -7.06E-04
  Decoupling Energy:                                               0.0369716948
  Recoupling Energy:                                              -0.0063731487
     5 OT DIIS     0.15E+00    1.8     0.00003992      -255.9458779659 -5.04E-05
  Decoupling Energy:                                               0.0369737640
  Recoupling Energy:                                              -0.0063731649
     6 OT DIIS     0.15E+00    1.8     0.00001793      -255.9458894143 -1.14E-05
  Decoupling Energy:                                               0.0369741808
  Recoupling Energy:                                              -0.0063731680
     7 OT DIIS     0.15E+00    1.8     0.00000621      -255.9458922911 -2.88E-06
  Decoupling Energy:                                               0.0369727127
  Recoupling Energy:                                              -0.0063731518
     8 OT DIIS     0.15E+00    1.8     0.00000242      -255.9458926301 -3.39E-07
  Decoupling Energy:                                               0.0369731060
  Recoupling Energy:                                              -0.0063731556
     9 OT DIIS     0.15E+00    1.8     0.00000111      -255.9458926795 -4.94E-08
  Decoupling Energy:                                               0.0369728228
  Recoupling Energy:                                              -0.0063731526
    10 OT DIIS     0.15E+00    1.7     0.00000048      -255.9458926897 -1.02E-08

  *** SCF run converged in    10 steps ***


  Electronic density on regular grids:       -179.9999999999        0.0000000001
  Core density on regular grids:              180.9999999999       -0.0000000001
  Total charge density on r-space grids:        1.0000000000
  Total charge density g-space grids:           1.0000000000

  Overlap energy of the core charge distribution:               0.00001951532734
  Self energy of the core charge distribution:               -615.71576003586028
  Core Hamiltonian energy:                                    191.01363228273357
  Hartree energy:                                             248.20663861897134
  Exchange-correlation energy:                                -61.38430761437694
  Hartree-Fock Exchange energy:                               -18.10821018317173
  QM/MM Electrostatic energy:                                   0.04209472670974

  Total energy:                                              -255.94589268966695

  outer SCF iter =    1 RMS gradient =   0.48E-06 energy =       -255.9458926897
  outer SCF loop converged in   1 iterations or   10 steps

  Decoupling Energy:                                               0.0369728028
  Recoupling Energy:                                              -0.0063731523

 ENERGY| Total FORCE_EVAL ( QMMM ) energy [a.u.]:          -1088.110859621875989

 MD_INI| MD initialization
 MD_INI| Potential energy [hartree]                          -0.108811085962E+04
 MD_INI| Total kinetic energy [hartree]                       0.239300084734E+03
 MD_INI| QM kinetic energy [hartree]                          0.106639360339E+00
 MD_INI| Total temperature [K]                                        300.000000
 MD_INI| QM temperature [K]                                           330.137318
 MD_INI| Cell volume [bohr^3]                                 1.137316355424E+07
 MD_INI| Cell volume [ang^3]                                  1.685328937712E+06
 MD_INI| Cell lengths [bohr]      2.24884969E+02  2.24884969E+02  2.24884969E+02
 MD_INI| Cell lengths [ang]       1.19004000E+02  1.19004000E+02  1.19004000E+02
 MD_INI| Cell angles [deg]        9.00000000E+01  9.00000000E+01  9.00000000E+01

  Translating the system in order to center the QM fragment in the QM box.

 Number of electrons:                                                        180
 Number of occupied orbitals:                                                 90
 Number of molecular orbitals:                                                90

 Number of orbital functions:                                               1067
 Number of independent orbital functions:                                   1067

 Extrapolation method: ASPC


 SCF WAVEFUNCTION OPTIMIZATION

  ----------------------------------- OT ---------------------------------------
  Minimizer      : DIIS                : direct inversion
                                         in the iterative subspace
                                         using   7 DIIS vectors
                                         safer DIIS on
  Preconditioner : FULL_ALL            : diagonalization, state selective
  Precond_solver : DEFAULT
  stepsize       :    0.15000000                  energy_gap     :    0.08000000
  eps_taylor     :   0.10000E-15                  max_taylor     :             4
  ----------------------------------- OT ---------------------------------------

  Step     Update method      Time    Convergence         Total energy    Change
  ------------------------------------------------------------------------------
  Decoupling Energy:                                               0.0370014665
  Recoupling Energy:                                              -0.0063734172
     1 OT DIIS     0.15E+00    7.7     0.00075899      -255.7182135366 -2.56E+02
  Decoupling Energy:                                               0.0370082401
  Recoupling Energy:                                              -0.0063735356
     2 OT DIIS     0.15E+00    1.8     0.00032685      -255.7237313788 -5.52E-03
  Decoupling Energy:                                               0.0370087430
  Recoupling Energy:                                              -0.0063735590
     3 OT DIIS     0.15E+00    1.7     0.00019068      -255.7247686956 -1.04E-03
  Decoupling Energy:                                               0.0370199903
  Recoupling Energy:                                              -0.0063736817
     4 OT DIIS     0.15E+00    1.7     0.00006054      -255.7249611378 -1.92E-04
  Decoupling Energy:                                               0.0370216785
  Recoupling Energy:                                              -0.0063737045
     5 OT DIIS     0.15E+00    1.7     0.00001954      -255.7249777028 -1.66E-05
  Decoupling Energy:                                               0.0370210027
  Recoupling Energy:                                              -0.0063736984
     6 OT DIIS     0.15E+00    1.8     0.00000817      -255.7249799612 -2.26E-06
  Decoupling Energy:                                               0.0370221951
  Recoupling Energy:                                              -0.0063737124
     7 OT DIIS     0.15E+00    1.7     0.00000308      -255.7249804232 -4.62E-07
  Decoupling Energy:                                               0.0370222404
  Recoupling Energy:                                              -0.0063737133
     8 OT DIIS     0.15E+00    1.8     0.00000136      -255.7249805005 -7.72E-08
  Decoupling Energy:                                               0.0370224681
  Recoupling Energy:                                              -0.0063737160
     9 OT DIIS     0.15E+00    1.7     0.00000058      -255.7249805162 -1.57E-08

  *** SCF run converged in     9 steps ***


  Electronic density on regular grids:       -180.0000000000        0.0000000000
  Core density on regular grids:              180.9999999999       -0.0000000001
  Total charge density on r-space grids:        0.9999999999
  Total charge density g-space grids:           0.9999999999

  Overlap energy of the core charge distribution:               0.00002422740145
  Self energy of the core charge distribution:               -615.71576003586028
  Core Hamiltonian energy:                                    191.21094361335005
  Hartree energy:                                             248.07775443195385
  Exchange-correlation energy:                                -61.42683491598937
  Hartree-Fock Exchange energy:                               -18.12283156629904
  QM/MM Electrostatic energy:                                   0.25172372924109

  Total energy:                                              -255.72498051620224

  outer SCF iter =    1 RMS gradient =   0.58E-06 energy =       -255.7249805162
  outer SCF loop converged in   1 iterations or    9 steps

  Decoupling Energy:                                               0.0370224966
  Recoupling Energy:                                              -0.0063737164

 ENERGY| Total FORCE_EVAL ( QMMM ) energy [a.u.]:          -1059.962356694176833

 MD| ***************************************************************************
 MD| Step number                                                               1
 MD| Time [fs]                                                          1.000000
 MD| Conserved quantity [hartree]                            -0.841461427922E+03
 MD| ---------------------------------------------------------------------------
 MD|                                          Instantaneous             Averages
 MD| CPU time per MD step [s]                    164.460261           164.460261
 MD| Energy drift per atom [K]           0.138202476759E+02   0.000000000000E+00
 MD| Potential energy [hartree]         -0.105996235669E+04  -0.105996235669E+04
 MD| Total kinetic energy [hartree]      0.218500928772E+03   0.218500928772E+03
 MD| QM kinetic energy [hartree]         0.121346646814E+00   0.121346646814E+00
 MD| Total temperature [K]                       273.925012           273.925012
 MD| QM temperature [K]                          375.668575           375.668575
 MD| ***************************************************************************

  Translating the system in order to center the QM fragment in the QM box.

 Number of electrons:                                                        180
 Number of occupied orbitals:                                                 90
 Number of molecular orbitals:                                                90

 Number of orbital functions:                                               1067
 Number of independent orbital functions:                                   1067

 Extrapolation method: ASPC


 SCF WAVEFUNCTION OPTIMIZATION

  ----------------------------------- OT ---------------------------------------
  Minimizer      : DIIS                : direct inversion
                                         in the iterative subspace
                                         using   7 DIIS vectors
                                         safer DIIS on
  Preconditioner : FULL_ALL            : diagonalization, state selective
  Precond_solver : DEFAULT
  stepsize       :    0.15000000                  energy_gap     :    0.08000000
  eps_taylor     :   0.10000E-15                  max_taylor     :             4
  ----------------------------------- OT ---------------------------------------

  Step     Update method      Time    Convergence         Total energy    Change
  ------------------------------------------------------------------------------
  Decoupling Energy:                                               0.0370782108
  Recoupling Energy:                                              -0.0063743359
     1 OT DIIS     0.15E+00    7.7     0.00029265      -255.3622519964 -2.55E+02
  Decoupling Energy:                                               0.0370714358
  Recoupling Energy:                                              -0.0063742685
     2 OT DIIS     0.15E+00    1.7     0.00012384      -255.3630883227 -8.36E-04
  Decoupling Energy:                                               0.0370747379
  Recoupling Energy:                                              -0.0063743004
     3 OT DIIS     0.15E+00    1.7     0.00005683      -255.3632557437 -1.67E-04
  Decoupling Energy:                                               0.0370720723
  Recoupling Energy:                                              -0.0063742776
     4 OT DIIS     0.15E+00    1.7     0.00001757      -255.3632745680 -1.88E-05
  Decoupling Energy:                                               0.0370725484
  Recoupling Energy:                                              -0.0063742816
     5 OT DIIS     0.15E+00    1.8     0.00000683      -255.3632760955 -1.53E-06
  Decoupling Energy:                                               0.0370729655
  Recoupling Energy:                                              -0.0063742866
     6 OT DIIS     0.15E+00    1.8     0.00000313      -255.3632763536 -2.58E-07
  Decoupling Energy:                                               0.0370729497
  Recoupling Energy:                                              -0.0063742866
     7 OT DIIS     0.15E+00    1.8     0.00000106      -255.3632764146 -6.10E-08
  Decoupling Energy:                                               0.0370730082
  Recoupling Energy:                                              -0.0063742873
     8 OT DIIS     0.15E+00    1.8     0.00000048      -255.3632764247 -1.02E-08

  *** SCF run converged in     8 steps ***


  Electronic density on regular grids:       -180.0000000000       -0.0000000000
  Core density on regular grids:              180.9999999999       -0.0000000001
  Total charge density on r-space grids:        0.9999999998
  Total charge density g-space grids:           0.9999999998

  Overlap energy of the core charge distribution:               0.00005088900718
  Self energy of the core charge distribution:               -615.71576003586028
  Core Hamiltonian energy:                                    191.44418497851495
  Hartree energy:                                             247.94136700718906
  Exchange-correlation energy:                                -61.47332419215627
  Hartree-Fock Exchange energy:                               -18.13880613779965
  QM/MM Electrostatic energy:                                   0.57901106636339

  Total energy:                                              -255.36327642474160

  outer SCF iter =    1 RMS gradient =   0.48E-06 energy =       -255.3632764247
  outer SCF loop converged in   1 iterations or    8 steps

  Decoupling Energy:                                               0.0370730247
  Recoupling Energy:                                              -0.0063742875

 ENERGY| Total FORCE_EVAL ( QMMM ) energy [a.u.]:          -1061.235329353823545

 MD| ***************************************************************************
 MD| Step number                                                               2
 MD| Time [fs]                                                          2.000000
 MD| Conserved quantity [hartree]                            -0.842817775660E+03
 MD| ---------------------------------------------------------------------------
 MD|                                          Instantaneous             Averages
 MD| CPU time per MD step [s]                     69.613218           117.036740
 MD| Energy drift per atom [K]           0.112696725341E+02   0.563483626705E+01
 MD| Potential energy [hartree]         -0.106123532935E+04  -0.106059884302E+04
 MD| Total kinetic energy [hartree]      0.218417553693E+03   0.218459241233E+03
 MD| QM kinetic energy [hartree]         0.111577168712E+00   0.116461907763E+00
 MD| Total temperature [K]                       273.820489           273.872750
 MD| QM temperature [K]                          345.423933           360.546254
 MD| ***************************************************************************

  Translating the system in order to center the QM fragment in the QM box.

 Number of electrons:                                                        180
 Number of occupied orbitals:                                                 90
 Number of molecular orbitals:                                                90

 Number of orbital functions:                                               1067
 Number of independent orbital functions:                                   1067

 Extrapolation method: ASPC


 SCF WAVEFUNCTION OPTIMIZATION

  ----------------------------------- OT ---------------------------------------
  Minimizer      : DIIS                : direct inversion
                                         in the iterative subspace
                                         using   7 DIIS vectors
                                         safer DIIS on
  Preconditioner : FULL_ALL            : diagonalization, state selective
  Precond_solver : DEFAULT
  stepsize       :    0.15000000                  energy_gap     :    0.08000000
  eps_taylor     :   0.10000E-15                  max_taylor     :             4
  ----------------------------------- OT ---------------------------------------

  Step     Update method      Time    Convergence         Total energy    Change
  ------------------------------------------------------------------------------
  Decoupling Energy:                                               0.0371231691
  Recoupling Energy:                                              -0.0063748342
     1 OT DIIS     0.15E+00    7.7     0.00057312      -254.8840277605 -2.55E+02
  Decoupling Energy:                                               0.0371263876
  Recoupling Energy:                                              -0.0063748788
     2 OT DIIS     0.15E+00    1.8     0.00022566      -254.8871536003 -3.13E-03
  Decoupling Energy:                                               0.0371271073
  Recoupling Energy:                                              -0.0063748849
     3 OT DIIS     0.15E+00    1.8     0.00008230      -254.8877089057 -5.55E-04
  Decoupling Energy:                                               0.0371223147
  Recoupling Energy:                                              -0.0063748371
     4 OT DIIS     0.15E+00    1.8     0.00002758      -254.8877591238 -5.02E-05
  Decoupling Energy:                                               0.0371233267
  Recoupling Energy:                                              -0.0063748480
     5 OT DIIS     0.15E+00    1.8     0.00001037      -254.8877629375 -3.81E-06
  Decoupling Energy:                                               0.0371231599
  Recoupling Energy:                                              -0.0063748450
     6 OT DIIS     0.15E+00    1.7     0.00000440      -254.8877635239 -5.86E-07
  Decoupling Energy:                                               0.0371230834
  Recoupling Energy:                                              -0.0063748446
     7 OT DIIS     0.15E+00    1.8     0.00000136      -254.8877636141 -9.03E-08
  Decoupling Energy:                                               0.0371230862
  Recoupling Energy:                                              -0.0063748447
     8 OT DIIS     0.15E+00    1.7     0.00000059      -254.8877636250 -1.09E-08

  *** SCF run converged in     8 steps ***


  Electronic density on regular grids:       -180.0000000003       -0.0000000003
  Core density on regular grids:              180.9999999999       -0.0000000001
  Total charge density on r-space grids:        0.9999999996
  Total charge density g-space grids:           0.9999999996

  Overlap energy of the core charge distribution:               0.00005124470507
  Self energy of the core charge distribution:               -615.71576003586028
  Core Hamiltonian energy:                                    191.49124486535254
  Hartree energy:                                             247.90728981294760
  Exchange-correlation energy:                                -61.48094405616828
  Hartree-Fock Exchange energy:                               -18.14140098140766
  QM/MM Electrostatic energy:                                   1.05175552542931

  Total energy:                                              -254.88776362500167

  outer SCF iter =    1 RMS gradient =   0.59E-06 energy =       -254.8877636250
  outer SCF loop converged in   1 iterations or    8 steps

  Decoupling Energy:                                               0.0371230854
  Recoupling Energy:                                              -0.0063748446

 ENERGY| Total FORCE_EVAL ( QMMM ) energy [a.u.]:          -1082.045341154955167

 MD| ***************************************************************************
 MD| Step number                                                               3
 MD| Time [fs]                                                          3.000000
 MD| Conserved quantity [hartree]                            -0.846392351288E+03
 MD| ---------------------------------------------------------------------------
 MD|                                          Instantaneous             Averages
 MD| CPU time per MD step [s]                     71.653918           101.909132
 MD| Energy drift per atom [K]           0.454777999797E+01   0.527248417736E+01
 MD| Potential energy [hartree]         -0.108204534115E+04  -0.106774767573E+04
 MD| Total kinetic energy [hartree]      0.235652989866E+03   0.224190490777E+03
 MD| QM kinetic energy [hartree]         0.117355657293E+00   0.116759824273E+00
 MD| Total temperature [K]                       295.427797           281.057766
 MD| QM temperature [K]                          363.313151           361.468553
 MD| ***************************************************************************

  Translating the system in order to center the QM fragment in the QM box.

 Number of electrons:                                                        180
 Number of occupied orbitals:                                                 90
 Number of molecular orbitals:                                                90

 Number of orbital functions:                                               1067
 Number of independent orbital functions:                                   1067

 Extrapolation method: ASPC


 SCF WAVEFUNCTION OPTIMIZATION

  ----------------------------------- OT ---------------------------------------
  Minimizer      : DIIS                : direct inversion
                                         in the iterative subspace
                                         using   7 DIIS vectors
                                         safer DIIS on
  Preconditioner : FULL_ALL            : diagonalization, state selective
  Precond_solver : DEFAULT
  stepsize       :    0.15000000                  energy_gap     :    0.08000000
  eps_taylor     :   0.10000E-15                  max_taylor     :             4
  ----------------------------------- OT ---------------------------------------

  Step     Update method      Time    Convergence         Total energy    Change
  ------------------------------------------------------------------------------
  Decoupling Energy:                                               0.0371653155
  Recoupling Energy:                                              -0.0063753269
     1 OT DIIS     0.15E+00    7.7     0.00026683      -254.3373023311 -2.54E+02
  Decoupling Energy:                                               0.0371743373
  Recoupling Energy:                                              -0.0063754110
     2 OT DIIS     0.15E+00    1.7     0.00010700      -254.3379940929 -6.92E-04
  Decoupling Energy:                                               0.0371689606
  Recoupling Energy:                                              -0.0063753550
     3 OT DIIS     0.15E+00    1.8     0.00003975      -254.3381225828 -1.28E-04
  Decoupling Energy:                                               0.0371715550
  Recoupling Energy:                                              -0.0063753823
     4 OT DIIS     0.15E+00    1.7     0.00001249      -254.3381324062 -9.82E-06
  Decoupling Energy:                                               0.0371702230
  Recoupling Energy:                                              -0.0063753688
     5 OT DIIS     0.15E+00    1.7     0.00000532      -254.3381332305 -8.24E-07
  Decoupling Energy:                                               0.0371705350
  Recoupling Energy:                                              -0.0063753715
     6 OT DIIS     0.15E+00    1.7     0.00000189      -254.3381333647 -1.34E-07
  Decoupling Energy:                                               0.0371705475
  Recoupling Energy:                                              -0.0063753718
     7 OT DIIS     0.15E+00    1.7     0.00000064      -254.3381333831 -1.84E-08

  *** SCF run converged in     7 steps ***


  Electronic density on regular grids:       -179.9999999999        0.0000000001
  Core density on regular grids:              180.9999999999       -0.0000000001
  Total charge density on r-space grids:        1.0000000000
  Total charge density g-space grids:           1.0000000000

  Overlap energy of the core charge distribution:               0.00002358472944
  Self energy of the core charge distribution:               -615.71576003586028
  Core Hamiltonian energy:                                    191.34732419350053
  Hartree energy:                                             247.97609664905150
  Exchange-correlation energy:                                -61.44936860718174
  Hartree-Fock Exchange energy:                               -18.13041875466527
  QM/MM Electrostatic energy:                                   1.63396958734245

  Total energy:                                              -254.33813338308337

  outer SCF iter =    1 RMS gradient =   0.64E-06 energy =       -254.3381333831
  outer SCF loop converged in   1 iterations or    7 steps

  Decoupling Energy:                                               0.0371704706
  Recoupling Energy:                                              -0.0063753710

 ENERGY| Total FORCE_EVAL ( QMMM ) energy [a.u.]:          -1079.714053873136208

 MD| ***************************************************************************
 MD| Step number                                                               4
 MD| Time [fs]                                                          4.000000
 MD| Conserved quantity [hartree]                            -0.842113598029E+03
 MD| ---------------------------------------------------------------------------
 MD|                                          Instantaneous             Averages
 MD| CPU time per MD step [s]                     67.488755            93.304038
 MD| Energy drift per atom [K]           0.125938594756E+02   0.710282800191E+01
 MD| Potential energy [hartree]         -0.107971405387E+04  -0.107073927027E+04
 MD| Total kinetic energy [hartree]      0.237600455845E+03   0.227542982044E+03
 MD| QM kinetic energy [hartree]         0.148327738222E+00   0.124651802760E+00
 MD| Total temperature [K]                       297.869250           285.260637
 MD| QM temperature [K]                          459.197444           385.900776
 MD| ***************************************************************************

  Translating the system in order to center the QM fragment in the QM box.

 Number of electrons:                                                        180
 Number of occupied orbitals:                                                 90
 Number of molecular orbitals:                                                90

 Number of orbital functions:                                               1067
 Number of independent orbital functions:                                   1067

 Extrapolation method: ASPC


 SCF WAVEFUNCTION OPTIMIZATION

  ----------------------------------- OT ---------------------------------------
  Minimizer      : DIIS                : direct inversion
                                         in the iterative subspace
                                         using   7 DIIS vectors
                                         safer DIIS on
  Preconditioner : FULL_ALL            : diagonalization, state selective
  Precond_solver : DEFAULT
  stepsize       :    0.15000000                  energy_gap     :    0.08000000
  eps_taylor     :   0.10000E-15                  max_taylor     :             4
  ----------------------------------- OT ---------------------------------------

  Step     Update method      Time    Convergence         Total energy    Change
  ------------------------------------------------------------------------------
  Decoupling Energy:                                               0.0372103418
  Recoupling Energy:                                              -0.0063758456
     1 OT DIIS     0.15E+00    7.7     0.00032118      -253.7449342896 -2.54E+02
  Decoupling Energy:                                               0.0372070913
  Recoupling Energy:                                              -0.0063758006
     2 OT DIIS     0.15E+00    1.8     0.00013148      -253.7458502630 -9.16E-04
  Decoupling Energy:                                               0.0372094683
  Recoupling Energy:                                              -0.0063758226
     3 OT DIIS     0.15E+00    1.8     0.00006207      -253.7460086661 -1.58E-04
  Decoupling Energy:                                               0.0372087561
  Recoupling Energy:                                              -0.0063758147
     4 OT DIIS     0.15E+00    1.8     0.00002387      -253.7460397475 -3.11E-05
  Decoupling Energy:                                               0.0372096240
  Recoupling Energy:                                              -0.0063758220
     5 OT DIIS     0.15E+00    1.8     0.00000517      -253.7460422019 -2.45E-06
  Decoupling Energy:                                               0.0372092997
  Recoupling Energy:                                              -0.0063758193
     6 OT DIIS     0.15E+00    1.8     0.00000247      -253.7460423435 -1.42E-07
  Decoupling Energy:                                               0.0372093025
  Recoupling Energy:                                              -0.0063758191
     7 OT DIIS     0.15E+00    1.7     0.00000089      -253.7460423746 -3.11E-08

  *** SCF run converged in     7 steps ***


  Electronic density on regular grids:       -180.0000000000       -0.0000000000
  Core density on regular grids:              180.9999999999       -0.0000000001
  Total charge density on r-space grids:        0.9999999998
  Total charge density g-space grids:           0.9999999998

  Overlap energy of the core charge distribution:               0.00001841796991
  Self energy of the core charge distribution:               -615.71576003586028
  Core Hamiltonian energy:                                    191.22473796333423
  Hartree energy:                                             248.04795361140617
  Exchange-correlation energy:                                -61.41798840863707
  Hartree-Fock Exchange energy:                               -18.11952189292352
  QM/MM Electrostatic energy:                                   2.23451797013498

  Total energy:                                              -253.74604237457555

  outer SCF iter =    1 RMS gradient =   0.89E-06 energy =       -253.7460423746
  outer SCF loop converged in   1 iterations or    7 steps

  Decoupling Energy:                                               0.0372093305
  Recoupling Energy:                                              -0.0063758194

 ENERGY| Total FORCE_EVAL ( QMMM ) energy [a.u.]:          -1094.307010820465393

 MD| ***************************************************************************
 MD| Step number                                                               5
 MD| Time [fs]                                                          5.000000
 MD| Conserved quantity [hartree]                            -0.848389415769E+03
 MD| ---------------------------------------------------------------------------
 MD|                                          Instantaneous             Averages
 MD| CPU time per MD step [s]                     72.158431            89.074917
 MD| Energy drift per atom [K]           0.792354397553E+00   0.584073328104E+01
 MD| Potential energy [hartree]         -0.109430701082E+04  -0.107545281838E+04
 MD| Total kinetic energy [hartree]      0.245917595052E+03   0.231217904646E+03
 MD| QM kinetic energy [hartree]         0.157564867664E+00   0.131234415741E+00
 MD| Total temperature [K]                       308.296082           289.867726
 MD| QM temperature [K]                          487.794026           406.279426
 MD| ***************************************************************************

  Translating the system in order to center the QM fragment in the QM box.

 Number of electrons:                                                        180
 Number of occupied orbitals:                                                 90
 Number of molecular orbitals:                                                90

 Number of orbital functions:                                               1067
 Number of independent orbital functions:                                   1067

 Extrapolation method: ASPC


 SCF WAVEFUNCTION OPTIMIZATION

  ----------------------------------- OT ---------------------------------------
  Minimizer      : DIIS                : direct inversion
                                         in the iterative subspace
                                         using   7 DIIS vectors
                                         safer DIIS on
  Preconditioner : FULL_ALL            : diagonalization, state selective
  Precond_solver : DEFAULT
  stepsize       :    0.15000000                  energy_gap     :    0.08000000
  eps_taylor     :   0.10000E-15                  max_taylor     :             4
  ----------------------------------- OT ---------------------------------------

  Step     Update method      Time    Convergence         Total energy    Change
  ------------------------------------------------------------------------------
  Decoupling Energy:                                               0.0372441045
  Recoupling Energy:                                              -0.0063762190
     1 OT DIIS     0.15E+00    7.7     0.00048961      -253.1925187283 -2.53E+02
  Decoupling Energy:                                               0.0372420080
  Recoupling Energy:                                              -0.0063762272
     2 OT DIIS     0.15E+00    1.8     0.00019213      -253.1946664476 -2.15E-03
  Decoupling Energy:                                               0.0372397056
  Recoupling Energy:                                              -0.0063761955
     3 OT DIIS     0.15E+00    1.7     0.00008075      -253.1950233022 -3.57E-04
  Decoupling Energy:                                               0.0372398212
  Recoupling Energy:                                              -0.0063761982
     4 OT DIIS     0.15E+00    1.8     0.00002239      -253.1950822965 -5.90E-05
  Decoupling Energy:                                               0.0372388082
  Recoupling Energy:                                              -0.0063761871
     5 OT DIIS     0.15E+00    1.8     0.00000831      -253.1950848579 -2.56E-06
  Decoupling Energy:                                               0.0372394811
  Recoupling Energy:                                              -0.0063761928
     6 OT DIIS     0.15E+00    1.8     0.00000282      -253.1950852133 -3.55E-07
  Decoupling Energy:                                               0.0372392233
  Recoupling Energy:                                              -0.0063761904
     7 OT DIIS     0.15E+00    1.8     0.00000083      -253.1950852530 -3.96E-08

  *** SCF run converged in     7 steps ***


  Electronic density on regular grids:       -180.0000000000       -0.0000000000
  Core density on regular grids:              180.9999999999       -0.0000000001
  Total charge density on r-space grids:        0.9999999998
  Total charge density g-space grids:           0.9999999998

  Overlap energy of the core charge distribution:               0.00001843302927
  Self energy of the core charge distribution:               -615.71576003586028
  Core Hamiltonian energy:                                    191.21894217008165
  Hartree energy:                                             248.05854008609830
  Exchange-correlation energy:                                -61.40902710453970
  Hartree-Fock Exchange energy:                               -18.11645349877463
  QM/MM Electrostatic energy:                                   2.76865469700266

  Total energy:                                              -253.19508525296280

  outer SCF iter =    1 RMS gradient =   0.83E-06 energy =       -253.1950852530
  outer SCF loop converged in   1 iterations or    7 steps

  Decoupling Energy:                                               0.0372392243
  Recoupling Energy:                                              -0.0063761903

 ENERGY| Total FORCE_EVAL ( QMMM ) energy [a.u.]:          -1057.339964834048715

 MD| ***************************************************************************
 MD| Step number                                                               6
 MD| Time [fs]                                                          6.000000
 MD| Conserved quantity [hartree]                            -0.842900323791E+03
 MD| ---------------------------------------------------------------------------
 MD|                                          Instantaneous             Averages
 MD| CPU time per MD step [s]                     68.972535            85.724520
 MD| Energy drift per atom [K]           0.111144430138E+02   0.671968490316E+01
 MD| Potential energy [hartree]         -0.105733996483E+04  -0.107243400946E+04
 MD| Total kinetic energy [hartree]      0.214439641043E+03   0.228421527379E+03
 MD| QM kinetic energy [hartree]         0.141132702503E+00   0.132884130201E+00
 MD| Total temperature [K]                       268.833554           286.362031
 MD| QM temperature [K]                          436.922838           411.386661
 MD| ***************************************************************************

 -------------------------------------------------------------------------------
 -                                                                             -
 -                                DBCSR STATISTICS                             -
 -                                                                             -
 -------------------------------------------------------------------------------
 COUNTER                                    TOTAL       BLAS       SMM       ACC
 flops    26 x    26 x    26             13709280       0.0%      0.0%    100.0%
 flops    26 x    26 x    32             33745920       0.0%      0.0%    100.0%
 flops    26 x    32 x    26             33745920       0.0%      0.0%    100.0%
 flops    32 x    26 x    26             33745920       0.0%      0.0%    100.0%
 flops    32 x    32 x    26             83066880       0.0%      0.0%    100.0%
 flops    26 x    32 x    32             83066880       0.0%      0.0%    100.0%
 flops    32 x    26 x    32             83066880       0.0%      0.0%    100.0%
 flops    26 x    26 x     9             92756664       0.0%      0.0%    100.0%
 flops     9 x    26 x    26            115243128       0.0%      0.0%    100.0%
 flops     9 x     9 x    26            165405240       0.0%      0.0%    100.0%
 flops    32 x    32 x    32            204472320       0.0%      0.0%    100.0%
 flops    26 x    32 x     9            228324096       0.0%      0.0%    100.0%
 flops    32 x    26 x     9            228324096       0.0%      0.0%    100.0%
 flops    26 x    26 x    22            240480240       0.0%      0.0%    100.0%
 flops     9 x    32 x    26            276756480       0.0%      0.0%    100.0%
 flops     9 x    26 x    32            276756480       0.0%      0.0%    100.0%
 flops    22 x    26 x    26            298778480       0.0%      0.0%    100.0%
 flops     9 x     9 x    32            407151360       0.0%      0.0%    100.0%
 flops    22 x     9 x    26            415855440       0.0%      0.0%    100.0%
 flops     9 x    22 x    26            416576160       0.0%      0.0%    100.0%
 flops    32 x    32 x     9            562028544       0.0%      0.0%    100.0%
 flops    26 x    32 x    22            591951360       0.0%      0.0%    100.0%
 flops    32 x    26 x    22            591951360       0.0%      0.0%    100.0%
 flops     9 x    32 x    32            689762304       0.0%      0.0%    100.0%
 flops    22 x    32 x    26            717516800       0.0%      0.0%    100.0%
 flops    22 x    26 x    32            717516800       0.0%      0.0%    100.0%
 flops    22 x     9 x    32           1023644160       0.0%      0.0%    100.0%
 flops     9 x    22 x    32           1025418240       0.0%      0.0%    100.0%
 flops    22 x    22 x    26           1109908800       0.0%      0.0%    100.0%
 flops     9 x    26 x     9           1380647268       0.0%      0.0%    100.0%
 flops    32 x    32 x    22           1457111040       0.0%      0.0%    100.0%
 flops    22 x    32 x    32           1788272640       0.0%      0.0%    100.0%
 flops    22 x    22 x    32           2732083200       0.0%      0.0%    100.0%
 flops     9 x    32 x     9           3398516352       0.0%      0.0%    100.0%
 flops    22 x    26 x     9           3579455880       0.0%      0.0%    100.0%
 flops     9 x    26 x    22           3579455880       0.0%      0.0%    100.0%
 flops    22 x    32 x     9           8810968320       0.0%      0.0%    100.0%
 flops     9 x    32 x    22           8810968320       0.0%      0.0%    100.0%
 flops    22 x    26 x    22           9280070800       0.0%      0.0%    100.0%
 flops    22 x    32 x    22          22843251200       0.0%      0.0%    100.0%
 flops inhomo. stacks                           0       0.0%      0.0%      0.0%
 flops total                        78.421527E+09       0.0%      0.0%    100.0%
 flops max/rank                      7.081808E+09       0.0%      0.0%    100.0%
 matmuls inhomo. stacks                         0       0.0%      0.0%      0.0%
 matmuls total                            4992822       0.0%      0.0%    100.0%
 number of processed stacks                630387       0.0%      0.0%    100.0%
 average stack size                                     0.0       0.0       7.9
 marketing flops                    85.671830E+09
 -------------------------------------------------------------------------------
 # multiplications                           1286
 max memory usage/rank               4.995400E+09
 # max total images/rank                        1
 # max 3D layers                                1
 # MPI messages exchanged                  123456
 MPI messages size (bytes):
  total size                        11.173573E+09
  min size                           0.000000E+00
  max size                         583.200000E+03
  average size                      90.506516E+03
 MPI breakdown and total messages size (bytes):
             size <=      128               37485                        0
       128 < size <=     8192               28683                206521632
      8192 < size <=    32768                   0                        0
     32768 < size <=   131072               42840               2742616800
    131072 < size <=  4194304               14448               8224444536
   4194304 < size <= 16777216                   0                        0
  16777216 < size                               0                        0
 -------------------------------------------------------------------------------
 -                                                                             -
 -                      DBCSR MESSAGE PASSING PERFORMANCE                      -
 -                                                                             -
 -------------------------------------------------------------------------------
 ROUTINE             CALLS      AVE VOLUME [Bytes]
 MP_Bcast               41                     12.
 MP_Allreduce         4615                      8.
 MP_Alltoall          5344                  20041.
 MP_ISend            20548                  38448.
 MP_IRecv            20548                  36392.
 -------------------------------------------------------------------------------

 -------------------------------------------------------------------------------
 -                                                                             -
 -                                GRID STATISTICS                              -
 -                                                                             -
 -------------------------------------------------------------------------------
 LP    KERNEL             BACKEND                              COUNT     PERCENT
 2     collocate ortho    GPU                                1935914      19.13%
 2     integrate ortho    GPU                                1906668      18.84%
 1     collocate ortho    GPU                                1672709      16.53%
 1     integrate ortho    GPU                                1542789      15.25%
 3     integrate ortho    GPU                                 940503       9.29%
 3     collocate ortho    GPU                                 816065       8.06%
 0     collocate ortho    GPU                                 503426       4.98%
 0     integrate ortho    GPU                                 447480       4.42%
 4     integrate ortho    GPU                                 200732       1.98%
 4     collocate ortho    GPU                                 123816       1.22%
 5     integrate ortho    GPU                                  13758       0.14%
 0     collocate general  REF                                   7616       0.08%
 1     integrate general  REF                                   7616       0.08%
 -------------------------------------------------------------------------------

 MEMORY| Estimated peak process memory [MiB]                                4808

 -------------------------------------------------------------------------------
 -                                                                             -
 -                         MESSAGE PASSING PERFORMANCE                         -
 -                                                                             -
 -------------------------------------------------------------------------------

 ROUTINE             CALLS      AVE VOLUME [Bytes]
 MP_Group                8
 MP_Bcast             6935               10576129.
 MP_Allreduce         2537                1620022.
 MP_Sync               430
 MP_Alltoall          1344               71189870.
 MP_ISendRecv         6195                 196062.
 MP_Wait             12964
 MP_comm_split          14
 MP_ISend             5887                1348673.
 MP_IRecv             5880                1349303.
 MP_Recv                21                 196328.
 -------------------------------------------------------------------------------


 -------------------------------------------------------------------------------
 -                                                                             -
 -                           R E F E R E N C E S                               -
 -                                                                             -
 -------------------------------------------------------------------------------
 
 CP2K version 8.2, the CP2K developers group (2021).
 CP2K is freely available from https://www.cp2k.org/ .

 Kuehne,Thomas D.; Iannuzzi,Marcella; Del Ben,Mauro;
 Rybkin,Vladimir V.; Seewald,Patrick; Stein,Frederick; Laino,Teodoro;
 Khaliullin,Rustam Z.; Schuett,Ole; Schiffmann,Florian; Golze,Dorothea;
 Wilhelm,Jan; Chulkov,Sergey; Bani-Hashemian,Mohammad Hossein;
 Weber,Valery; Borstnik,Urban; Taillefumier,Mathieu;
 Jakobovits,Alice Shoshana; Lazzaro,Alfio; Pabst,Hans; Mueller,Tiziano;
 Schade,Robert; Guidon,Manuel; Andermatt,Samuel; Holmberg,Nico;
 Schenter,Gregory K.; Hehn,Anna; Bussy,Augustin; Belleflamme,Fabian;
 Tabacchi,Gloria; Gloess,Andreas; Lass,Michael; Bethune,Iain;
 Mundy,Christopher J.; Plessl,Christian; Watkins,Matt;
 VandeVondele,Joost; Krack,Matthias; Hutter,Juerg. 
 The Journal of Chemical Physics, 152 (19), (2020). 
 CP2K: An electronic structure and molecular dynamics software package -
 Quickstep: Efficient and accurate electronic structure calculations.
 https://doi.org/10.1063/5.0007045

 Schuett, Ole; Messmer, Peter; Hutter, Juerg; VandeVondele, Joost. 
 Electronic Structure Calculations on Graphics Processing Units, John
 Wiley & Sons, Ltd, 173-190 (2016). 
 GPU-Accelerated Sparse Matrix-Matrix Multiplication for
 Linear Scaling Density Functional Theory.
 https://doi.org/10.1002/9781118670712.ch8

 Heinecke, A; Henry, G; Hutchinson, M; Pabst, H. 
 Proceedings of Intl. Supercomputing Conference, 981-991 (2016). 
 LIBXSMM: Accelerating Small Matrix Multiplications
 by Runtime Code Generation.
 https://doi.org/10.1109/SC.2016.83

 Borstnik, U; VandeVondele, J; Weber, V; Hutter, J. 
 PARALLEL COMPUTING, 40 (5-6), 47-58 (2014). 
 Sparse matrix multiplication: The distributed block-compressed sparse
 row library.
 https://doi.org/10.1016/j.parco.2014.03.012

 Hutter, J; Iannuzzi, M; Schiffmann, F; VandeVondele, J. 
 WIREs Comput Mol Sci., 4 (1), 15-25 (2014). 
 CP2K: atomistic simulations of condensed matter systems.
 https://doi.org/10.1002/wcms.1159

 Marek, A; Blum, V; Johanni, R; Havu, V; Lang, B; Auckenthaler, T;
 Heinecke, A; Bungartz, H; Lederer, H. 
 Journal of Physics: Condensed Matter, 26 (21), (2014). 
 The ELPA library: scalable parallel eigenvalue solutions for
 electronic structure
 theory and computational science.
 https://doi.org/10.1088/0953-8984/26/21/213201

 Guidon, M; Hutter, J; VandeVondele, J. 
 JOURNAL OF CHEMICAL THEORY AND COMPUTATION, 5 (11), 3010-3021 (2009). 
 Robust Periodic Hartree-Fock Exchange for Large-Scale Simulations Using
 Gaussian Basis Sets.
 https://doi.org/10.1021/ct900494g

 Guidon, M; Schiffmann, F; Hutter, J; VandeVondele, J. 
 JOURNAL OF CHEMICAL PHYSICS, 128 (21), 214104 (2008). 
 Ab initio molecular dynamics using hybrid density functionals.
 https://doi.org/10.1063/1.2931945

 Kuhne, TD; Krack, M; Mohamed, FR; Parrinello, M. 
 PHYSICAL REVIEW LETTERS, 98 (6), 066401 (2007). 
 Efficient and accurate Car-Parrinello-like approach to
 Born-Oppenheimer molecular dynamics.
 https://doi.org/10.1103/PhysRevLett.98.066401

 Laino, T; Mohamed, F; Laio, A; Parrinello, M. 
 JOURNAL OF CHEMICAL THEORY AND COMPUTATION, 2 (5), 1370-1378 (2006). 
 An efficient linear-scaling electrostatic coupling for treating
 periodic boundary conditions in QM/MM simulations.
 https://doi.org/10.1021/ct6001169

 Laino, T; Mohamed, F; Laio, A; Parrinello, M. 
 JOURNAL OF CHEMICAL THEORY AND COMPUTATION, 1 (6), 1176-1184 (2005). 
 An efficient real space multigrid QM/MM electrostatic coupling.
 https://doi.org/10.1021/ct050123f

 Krack, M. 
 THEORETICAL CHEMISTRY ACCOUNTS, 114 (1-3), 145-152 (2005). 
 Pseudopotentials for H to Kr optimized for gradient-corrected
 exchange-correlation functionals.
 https://doi.org/10.1007/s00214-005-0655-y

 VandeVondele, J; Krack, M; Mohamed, F; Parrinello, M; Chassaing, T;
 Hutter, J. COMPUTER PHYSICS COMMUNICATIONS, 167 (2), 103-128 (2005). 
 QUICKSTEP: Fast and accurate density functional calculations using a
 mixed Gaussian and plane waves approach.
 https://doi.org/10.1016/j.cpc.2004.12.014

 Frigo, M; Johnson, SG. 
 PROCEEDINGS OF THE IEEE, 93 (2), 216-231 (2005). 
 The design and implementation of FFTW3.
 https://doi.org/10.1109/JPROC.2004.840301

 Kolafa, J. 
 JOURNAL OF COMPUTATIONAL CHEMISTRY, 25 (3), 335-342 (2004). 
 Time-reversible always stable predictor-corrector method for molecular dynamics of polarizable molecules.
 https://doi.org/10.1002/jcc.10385

 VandeVondele, J; Hutter, J. 
 JOURNAL OF CHEMICAL PHYSICS, 118 (10), 4365-4369 (2003). 
 An efficient orbital transformation method for electronic structure
 calculations.
 https://doi.org/10.1063/1.1543154

 Hartwigsen, C; Goedecker, S; Hutter, J. 
 PHYSICAL REVIEW B, 58 (7), 3641-3662 (1998). 
 Relativistic separable dual-space Gaussian pseudopotentials from H to Rn.
 https://doi.org/10.1103/PhysRevB.58.3641

 Lippert, G; Hutter, J; Parrinello, M. 
 MOLECULAR PHYSICS, 92 (3), 477-487 (1997). 
 A hybrid Gaussian and plane wave density functional scheme.
 https://doi.org/10.1080/002689797170220

 Perdew, JP; Burke, K; Ernzerhof, M. 
 PHYSICAL REVIEW LETTERS, 77 (18), 3865-3868 (1996). 
 Generalized gradient approximation made simple.
 https://doi.org/10.1103/PhysRevLett.77.3865

 Goedecker, S; Teter, M; Hutter, J. 
 PHYSICAL REVIEW B, 54 (3), 1703-1710 (1996). 
 Separable dual-space Gaussian pseudopotentials.
 https://doi.org/10.1103/PhysRevB.54.1703

 ESSMANN, U; PERERA, L; BERKOWITZ, ML; DARDEN, T; LEE, H; PEDERSEN, LG. 
 JOURNAL OF CHEMICAL PHYSICS, 103 (19), 8577-8593 (1995). 
 A SMOOTH PARTICLE MESH EWALD METHOD.
 https://doi.org/10.1063/1.470117

 BLOCHL, PE. 
 JOURNAL OF CHEMICAL PHYSICS, 103 (17), 7422-7428 (1995). 
 ELECTROSTATIC DECOUPLING OF PERIODIC IMAGES OF PLANE-WAVE-EXPANDED
 DENSITIES AND DERIVED ATOMIC POINT CHARGES.
 https://doi.org/10.1063/1.470314


 -------------------------------------------------------------------------------
 -                                                                             -
 -                                T I M I N G                                  -
 -                                                                             -
 -------------------------------------------------------------------------------
 SUBROUTINE                       CALLS  ASD         SELF TIME        TOTAL TIME
                                MAXIMUM       AVERAGE  MAXIMUM  AVERAGE  MAXIMUM
 CP2K                                 1  1.0    0.417    0.461  559.576  559.578
 qs_mol_dyn_low                       1  2.0    0.010    0.011  515.432  516.970
 velocity_verlet                      6  3.0    0.036    0.053  425.114  425.310
 qs_forces                            7  3.9    0.001    0.001  311.410  311.418
 rebuild_ks_matrix                   63  8.5    0.000    0.000  278.348  278.439
 qs_ks_build_kohn_sham_matrix        63  9.5    0.008    0.009  278.347  278.439
 hfx_ks_matrix                       63 10.5    0.002    0.002  228.316  228.329
 qs_energies                          7  4.9    0.000    0.000  161.278  161.290
 scf_env_do_scf                       7  5.9    0.000    0.001  152.130  152.134
 qs_ks_update_qs_env_forces           7  4.9    0.000    0.000  149.972  149.983
 derivatives_four_center              7  8.9    0.021    0.297  138.706  138.706
 derivatives_four_center_main         7  9.9    0.527    0.794  138.156  138.157
 derivatives_four_center_bin        573 10.9  136.478  136.976  136.478  136.976
 qs_ks_update_qs_env                 63  7.8    0.001    0.001  128.391  128.471
 scf_env_do_scf_inner_loop           56  6.8    0.001    0.003   94.097   94.108
 integrate_four_center               63 11.5    2.012    2.453   89.595   89.608
 qmmm_el_coupling                     7  3.9    0.000    0.000   87.896   88.313
 qmmm_elec_with_gaussian              7  4.9    0.066    0.078   87.890   88.308
 integrate_four_center_main          63 12.5    0.194    0.261   83.053   83.377
 integrate_four_center_bin         4150 13.5   82.860   83.250   82.860   83.250
 qmmm_forces                          7  3.9    0.029    0.032   81.339   81.342
 qmmm_forces_with_gaussian            7  4.9    0.078    0.093   78.634   79.459
 qmmm_elec_with_gaussian_low          7  5.9    0.000    0.000   63.018   66.323
 init_scf_loop                        7  6.9    0.000    0.000   58.017   58.018
 qmmm_force_with_gaussian_low         7  5.9    0.000    0.000   50.984   51.548
 qmmm_env_create                      1  2.0    9.411    9.487   42.076   42.082
 pw_transfer                       1337 12.0    0.086    0.097   38.882   41.529
 qmmm_forces_gaussian_low_R           7  6.9    0.000    0.000   40.836   41.329
 qmmm_forces_with_gaussian_LG         7  7.9   40.836   41.329   40.836   41.329
 fft_wrap_pw1pw2                   1113 13.1    0.012    0.013   38.373   41.010
 fft_wrap_pw1pw2_200                707 14.4    0.004    0.004   36.346   38.872
 qmmm_elec_gaussian_low_R             7  6.9    0.000    0.000   33.282   36.578
 qmmm_elec_with_gaussian_LG           7  7.9   33.282   36.578   33.282   36.578
 pw_integral_ab                    2967  7.5   32.361   33.028   33.168   33.896
 fist_calc_energy_force               7  3.9    0.066    0.073   29.905   30.302
 qmmm_elec_gaussian_low_G             7  6.9   29.736   30.057   29.736   30.057
 qs_vxc_create                       63 10.5    0.001    0.002   29.340   29.365
 xc_vxc_pw_create                    63 11.5    0.874    0.914   29.339   29.364
 fist_init                            1  3.0    0.000    0.000   26.813   26.814
 pw_restrict_s3                      21  5.9    2.667    2.828   23.387   24.010
 pw_cuda_c1dr3d_3d_ps               595 15.5    0.012    0.014   20.595   21.685
 force_nonbond                        7  4.9   15.090   21.430   15.090   21.430
 pw_cuda_r3dc1d_3d_ps               518 14.7    0.010    0.010   17.761   19.307
 qmmm_elec_with_gaussian:spline       7  5.9    0.000    0.000   17.520   17.922
 pw_prolongate_s3                    21  6.9    1.935    2.130   17.520   17.922
 mp_sum_d                          1943  9.8    8.565   17.601    8.565   17.601
 mp_sum_dm3                          38  5.7   15.353   16.661   15.353   16.661
 force_field_control                  1  4.0    0.000    0.000   14.114   15.219
 xc_rho_set_and_dset_create          63 12.5    0.111    0.132   13.912   14.817
 qs_rho_update_rho                   63  7.9    0.000    0.000   13.207   13.405
 calculate_rho_elec                  63  8.9    0.654    0.656   13.207   13.405
 mp_alltoall_z22v                  1113 17.1   11.036   13.299   11.036   13.299
 rdparm_amber_8                       2  6.5   10.889   11.185   13.107   13.222
 dbcsr_multiply_generic            1286 12.8    0.045    0.049   11.054   12.312
 topology_control                     1  4.0    0.000    0.000   11.648   12.225
 x_to_yz                            595 16.5    5.338    6.213   10.690   11.940
 density_rs2pw                       63  9.9    0.003    0.003   10.527   11.741
 -------------------------------------------------------------------------------

 The number of warnings for this run is : 0
 
 -------------------------------------------------------------------------------
  **** **** ******  **  PROGRAM ENDED AT                 2021-07-26 12:31:17.271
 ***** ** ***  *** **   PROGRAM RAN ON                                    r2i7n2
 **    ****   ******    PROGRAM RAN BY                                    hollyj
 ***** **    ** ** **   PROGRAM PROCESS ID                                 12581
  **** **  *******  **  PROGRAM STOPPED IN /lustre/home/w68/hollyj/CP2K/Cirrus/G
                                           PU/cp2kMD/CBD_PHY-PBE0/6STEPS/4NODES/
                                           36CPN/10THREADS
