 DBCSR| CPU Multiplication driver                                           XSMM
 DBCSR| Multrec recursion limit                                              512
 DBCSR| Multiplication stack size                                           1000
 DBCSR| Maximum elements for images                                    UNLIMITED
 DBCSR| Multiplicative factor virtual images                                   1
 DBCSR| Use multiplication densification                                       T
 DBCSR| Multiplication size stacks                                             3
 DBCSR| Use memory pool for CPU allocation                                     F
 DBCSR| Number of 3D layers                                               SINGLE
 DBCSR| Use MPI memory allocation                                              F
 DBCSR| Use RMA algorithm                                                      F
 DBCSR| Use Communication thread                                               T
 DBCSR| Communication thread load                                             53
 DBCSR| MPI: My node id                                                        0
 DBCSR| MPI: Number of nodes                                                   4
 DBCSR| OMP: Current number of threads                                        10
 DBCSR| OMP: Max number of threads                                            10
 DBCSR| Split modifier for TAS multiplication algorithm                  1.0E+00


  **** **** ******  **  PROGRAM STARTED AT               2022-02-18 10:50:20.904
 ***** ** ***  *** **   PROGRAM STARTED ON                                r2i5n4
 **    ****   ******    PROGRAM STARTED BY                                hollyj
 ***** **    ** ** **   PROGRAM PROCESS ID                                 54969
  **** **  *******  **  PROGRAM STARTED IN /lustre/home/w68/hollyj/CP2K/ClC253-B
                                           3LYP

 CP2K| version string:                                          CP2K version 9.1
 CP2K| source code revision number:                                  git:d8d7100
 CP2K| cp2kflags: omp libint fftw3 libxc parallel mpi3 scalapack cosma xsmm mkl 
 CP2K|            grid_hip
 CP2K| is freely available from                            https://www.cp2k.org/
 CP2K| Program compiled at                           Thu Feb 3 17:33:52 GMT 2022
 CP2K| Program compiled on                                         cirrus-login1
 CP2K| Program compiled for                                       Cirrus-gcc-hip
 CP2K| Data directory path            /lustre/home/w68/hollyj/CP2K/cp2k-9.1/data
 CP2K| Input file name                                      ClC-253-BLYP-wfn.inp

 GLOBAL| Force Environment number                                              1
 GLOBAL| Basis set file name                                     EMSL_BASIS_SETS
 GLOBAL| Potential file name                                           POTENTIAL
 GLOBAL| MM Potential file name                                     MM_POTENTIAL
 GLOBAL| Coordinate file name                                            ClC.pdb
 GLOBAL| Method name                                                        CP2K
 GLOBAL| Project name                                                    ClC-253
 GLOBAL| Run type                                                         ENERGY
 GLOBAL| FFT library                                                       FFTW3
 GLOBAL| Diagonalization library                                       ScaLAPACK
 GLOBAL| Orthonormality check for eigenvectors                          DISABLED
 GLOBAL| Matrix multiplication library                                     COSMA
 GLOBAL| All-to-all communication in single precision                          F
 GLOBAL| FFTs using library dependent lengths                                  F
 GLOBAL| Grid backend                                                       AUTO
 GLOBAL| Global print level                                                  LOW
 GLOBAL| MPI I/O enabled                                                       T
 GLOBAL| Total number of message passing processes                             4
 GLOBAL| Number of threads for this process                                   10
 GLOBAL| This output is from process                                           0
 GLOBAL| Stack size for threads created by OpenMP (OMP_STACKSIZE)        default
 GLOBAL| CPU model name                 Intel(R) Xeon(R) Gold 6248 CPU @ 2.50GHz
 GLOBAL| CPUID                                                              1003

 MEMORY| system memory details [Kb]
 MEMORY|                        rank 0           min           max       average
 MEMORY| MemTotal            394535400     394535400     394535408     394535404
 MEMORY| MemFree             378447796     378447796     378666868     378557332
 MEMORY| Buffers                   256           256           256           256
 MEMORY| Cached                 767360        756804        767360        762082
 MEMORY| Slab                  4576516       4395944       4576516       4486230
 MEMORY| SReclaimable           418188        366328        418188        392258
 MEMORY| MemLikelyFree       379633600     379633600     379790256     379711928



                      ************* ******** ***********   
                     ************* **********************  
                     ****     **** ****      ***********   
                     ******** ****  *******     ****       
                     *******  ****   *******   ****        
                     ****     ****       ****  ****        
                     ****     **** **********  ****        
                      ****     **** ********    ****       
                     FRONTIERS IN SIMULATION TECHNOLOGY    
                                                           
                        C.J. Mundy, S. Balasubramanian,    
                     Ken Bagchi, J. Hutter, Ari Seitsonen  
                      IFW Kuo, T. Laino, J. VandeVondele   
                                 Version 1.0               

                                                           


 EWALD| Summation is done by:                                               SPME
 EWALD| Alpha parameter [       ANGSTROM^-1]                              0.4000
 EWALD| Real Space Cutoff [          ANGSTROM]                            8.4348
 EWALD| G-space max. Miller index                         80        80        80
 EWALD| Spline interpolation order                                             6

 FORCEFIELD| WARNING: A non Critical ForceField parameter is missing! CP2K GOES!
 FORCEFIELD| Non critical parameters are:Urey-Bradley,Torsions,Impropers, Opbends and 1-4
 FORCEFIELD| All missing parameters will not contribute to the potential energy!
 FORCEFIELD| Activate the print key FF_INFO to have a list of missing parameters

 CHARGE_INFO| Total Charge of the Classical System:                     2.369895

 SPLINE_INFO| Generating 85491 splines for NONBONDED14 interactions 
              Due to 413 different atomic kinds
  ...8549  ...17098  ...25647  ...34196  ...42745  ...51294  ...59843  ...68392  ...76941  ...85490
 SPLINE_INFO| Number of unique splines computed:            254
 SPLINE_INFO| Done

 SPLINE_INFO| Generating 85491 splines for NONBONDED interactions 
              Due to 413 different atomic kinds
  ...8549  ...17098  ...25647  ...34196  ...42745  ...51294  ...59843  ...68392  ...76941  ...85490
 SPLINE_INFO| Number of unique splines computed:            254
 SPLINE_INFO| Done

 *******************************************************************************
 *******************************************************************************
 **                                                                           **
 **     #####                         ##              ##                      **
 **    ##   ##            ##          ##              ##                      **
 **   ##     ##                       ##            ######                    **
 **   ##     ##  ##   ##  ##   #####  ##  ##   ####   ##    #####    #####    **
 **   ##     ##  ##   ##  ##  ##      ## ##   ##      ##   ##   ##  ##   ##   **
 **   ##  ## ##  ##   ##  ##  ##      ####     ###    ##   ######   ######    **
 **    ##  ###   ##   ##  ##  ##      ## ##      ##   ##   ##       ##        **
 **     #######   #####   ##   #####  ##  ##  ####    ##    #####   ##        **
 **           ##                                                    ##        **
 **                                                                           **
 **                                                ... make the atoms dance   **
 **                                                                           **
 **            Copyright (C) by CP2K developers group (2000-2021)             **
 **                      J. Chem. Phys. 152, 194103 (2020)                    **
 **                                                                           **
 *******************************************************************************


 TOTAL NUMBERS AND MAXIMUM NUMBERS

  Total number of            - Atomic kinds:                                   6
                             - Atoms:                                        253
                             - Shell sets:                                   876
                             - Shells:                                      1109
                             - Primitive Cartesian functions:               1967
                             - Cartesian basis functions:                   2429
                             - Spherical basis functions:                   2313

  Maximum angular momentum of- Orbital basis functions:                        2
                             - Local part of the GTH pseudopotential:          2
                             - Non-local part of the GTH pseudopotential:      2


 SCF PARAMETERS         Density guess:                                    ATOMIC
                        --------------------------------------------------------
                        max_scf:                                              10
                        max_scf_history:                                       0
                        max_diis:                                              4
                        --------------------------------------------------------
                        eps_scf:                                        1.00E-06
                        eps_scf_history:                                0.00E+00
                        eps_diis:                                       1.00E-01
                        eps_eigval:                                     1.00E-05
                        --------------------------------------------------------
                        level_shift [a.u.]:                                 0.00
                        --------------------------------------------------------
                        No outer SCF

 *******************************************************************************
 *******************************************************************************
 **                                                                           **
 **             #######  ##     ## ##     ## ##     ##                        **
 **            ##     ## ###   ### ###   ### ###   ###                        **
 **            ##     ## #### #### #### #### #### ####                        **
 **            ##     ## ## ### ## ## ### ## ## ### ##                        **
 **            ##  ## ## ##     ## ##     ## ##     ##                        **
 **            ##    ##  ##     ## ##     ## ##     ##  T.Laino and F.Mohamed **
 **             ##### ## ##     ## ##     ## ##     ##  2005 - 2015           **
 **                                                                           **
 **                                                     Calculation Started.. **
 *******************************************************************************
 *******************************************************************************

  Translating the system in order to center the QM fragment in the QM box.

 Number of electrons:                                                        654
 Number of occupied orbitals:                                                327
 Number of molecular orbitals:                                               327

 Number of orbital functions:                                               2313
 Number of independent orbital functions:                                   2313

 Extrapolation method: initial_guess


 SCF WAVEFUNCTION OPTIMIZATION

  ----------------------------------- OT ---------------------------------------
  Minimizer      : DIIS                : direct inversion
                                         in the iterative subspace
                                         using   7 DIIS vectors
                                         safer DIIS on
  Preconditioner : FULL_ALL            : diagonalization, state selective
  Precond_solver : DEFAULT
  stepsize       :    0.15000000                  energy_gap     :    0.08000000
  eps_taylor     :   0.10000E-15                  max_taylor     :             4
  ----------------------------------- OT ---------------------------------------

  Step     Update method      Time    Convergence         Total energy    Change
  ------------------------------------------------------------------------------
  Decoupling Energy:                                               0.0891604471
  Recoupling Energy:                                              -0.0071086723
     1 OT DIIS     0.15E+00    4.8     0.03074802     -1034.4884093406 -1.03E+03
  Decoupling Energy:                                               0.0540574902
  Recoupling Energy:                                              -0.0072402664
     2 OT DIIS     0.15E+00    2.4     0.04354333     -1059.1691865847 -2.47E+01
  Decoupling Energy:                                               0.2426047432
  Recoupling Energy:                                              -0.0094455739
     3 OT DIIS     0.15E+00    2.4     0.01792374     -1081.3683630283 -2.22E+01
  Decoupling Energy:                                               0.2055689151
  Recoupling Energy:                                              -0.0092795785
     4 OT DIIS     0.15E+00    2.4     0.02283107     -1085.5682801530 -4.20E+00
  Decoupling Energy:                                               0.1401679023
  Recoupling Energy:                                              -0.0081030286
     5 OT DIIS     0.15E+00    2.4     0.00865266     -1090.2536657645 -4.69E+00
  Decoupling Energy:                                               0.0603897674
  Recoupling Energy:                                              -0.0066731171
     6 OT DIIS     0.15E+00    2.4     0.00618448     -1091.7663887155 -1.51E+00
  Decoupling Energy:                                               0.0760905888
  Recoupling Energy:                                              -0.0070081511
     7 OT DIIS     0.15E+00    2.4     0.00368632     -1092.5950253717 -8.29E-01
  Decoupling Energy:                                               0.0744900701
  Recoupling Energy:                                              -0.0069444133
     8 OT DIIS     0.15E+00    2.4     0.00274690     -1093.0445587491 -4.50E-01
  Decoupling Energy:                                               0.0675456229
  Recoupling Energy:                                              -0.0068315799
     9 OT DIIS     0.15E+00    2.4     0.00184222     -1093.3080528786 -2.63E-01
  Decoupling Energy:                                               0.0710316319
  Recoupling Energy:                                              -0.0068947714
    10 OT DIIS     0.15E+00    2.4     0.00150083     -1093.4697633358 -1.62E-01

  Leaving inner SCF loop after reaching    10 steps.


  Electronic density on regular grids:       -654.0001898634       -0.0001898634
  Core density on regular grids:              654.9999999993       -0.0000000007
  Total charge density on r-space grids:        0.9998101360
  Total charge density g-space grids:           0.9998101360

  Overlap energy of the core charge distribution:               0.00004213532864
  Self energy of the core charge distribution:              -2459.11679630764229
  Core Hamiltonian energy:                                    760.47275788038883
  Hartree energy:                                             998.12344598051118
  Exchange-correlation energy:                               -294.00354143144227
  QM/MM Electrostatic energy:                                 -98.94567159290729

  Total energy:                                             -1093.46976333576299

 *** WARNING in qs_scf.F:598 :: SCF run NOT converged ***


 ENERGY| Total FORCE_EVAL ( QMMM ) energy [a.u.]:          -1464.553631819580460

 -------------------------------------------------------------------------------
 -                                                                             -
 -                                DBCSR STATISTICS                             -
 -                                                                             -
 -------------------------------------------------------------------------------
 COUNTER                                    TOTAL       BLAS       SMM       ACC
 flops    18 x     7 x     7                 1764       0.0%    100.0%      0.0%
 flops     5 x     7 x     7                67130       0.0%    100.0%      0.0%
 flops    18 x     7 x    18               127008       0.0%    100.0%      0.0%
 flops    14 x     7 x     7               157780       0.0%    100.0%      0.0%
 flops    18 x    32 x    32               368640       0.0%    100.0%      0.0%
 flops    18 x    18 x   160              1140480       0.0%    100.0%      0.0%
 flops    18 x    18 x   167              1190376       0.0%    100.0%      0.0%
 flops     5 x     7 x    18              2822400       0.0%    100.0%      0.0%
 flops    18 x     7 x     5              2822400       0.0%    100.0%      0.0%
 flops    18 x    32 x    18              5806080       0.0%    100.0%      0.0%
 flops    14 x     7 x    18              6420960       0.0%    100.0%      0.0%
 flops    18 x     7 x    14              6420960       0.0%    100.0%      0.0%
 flops     5 x    18 x   160             12355200       0.0%    100.0%      0.0%
 flops     5 x    18 x   167             12895740       0.0%    100.0%      0.0%
 flops    18 x     5 x   160             12988800       0.0%    100.0%      0.0%
 flops    18 x     5 x   167             13557060       0.0%    100.0%      0.0%
 flops     5 x    32 x    32             14028800       0.0%    100.0%      0.0%
 flops    14 x    18 x   160             27498240       0.0%    100.0%      0.0%
 flops    14 x    18 x   167             28701288       0.0%    100.0%      0.0%
 flops    18 x    14 x   160             30159360       0.0%    100.0%      0.0%
 flops    18 x    14 x   167             31478832       0.0%    100.0%      0.0%
 flops    14 x    32 x    32             32972800       0.0%    100.0%      0.0%
 flops     5 x     7 x     5             79331000       0.0%    100.0%      0.0%
 flops    43 x   160 x   160            110080000       0.0%    100.0%      0.0%
 flops    43 x   167 x   160            114896000       0.0%    100.0%      0.0%
 flops    43 x   160 x   167            114896000       0.0%    100.0%      0.0%
 flops    43 x   167 x   167            119922700       0.0%    100.0%      0.0%
 flops     5 x    32 x    18            129024000       0.0%    100.0%      0.0%
 flops    18 x    32 x     5            129024000       0.0%    100.0%      0.0%
 flops    39 x   160 x   160            167731200       0.0%    100.0%      0.0%
 flops    39 x   167 x   160            175069440       0.0%    100.0%      0.0%
 flops    39 x   160 x   167            175069440       0.0%    100.0%      0.0%
 flops    39 x   167 x   167            182728728       0.0%    100.0%      0.0%
 flops    14 x     7 x     5            182997360       0.0%    100.0%      0.0%
 flops     5 x     7 x    14            182997360       0.0%    100.0%      0.0%
 flops    76 x   160 x   160            194560000       0.0%    100.0%      0.0%
 flops    76 x   160 x   167            203072000       0.0%    100.0%      0.0%
 flops    76 x   167 x   160            203072000       0.0%    100.0%      0.0%
 flops    76 x   167 x   167            211956400       0.0%    100.0%      0.0%
 flops    14 x    32 x    18            293529600       0.0%    100.0%      0.0%
 flops    18 x    32 x    14            293529600       0.0%    100.0%      0.0%
 flops    43 x   160 x  1156            349944320       0.0%    100.0%      0.0%
 flops    43 x   160 x  1157            350247040       0.0%    100.0%      0.0%
 flops     5 x     5 x   160            362208000       0.0%    100.0%      0.0%
 flops    43 x   167 x  1156            365254384       0.0%    100.0%      0.0%
 flops    43 x   167 x  1157            365570348       0.0%    100.0%      0.0%
 flops     5 x     5 x   167            378054600       0.0%    100.0%      0.0%
 flops    14 x     7 x    14            431411680       0.0%    100.0%      0.0%
 flops    39 x   160 x  1156            591502080       0.0%    100.0%      0.0%
 flops    39 x   160 x  1157            592013760       0.0%    100.0%      0.0%
 flops    39 x   167 x  1156            617380296       0.0%    100.0%      0.0%
 flops    39 x   167 x  1157            617914362       0.0%    100.0%      0.0%
 flops    76 x   160 x  1156            618506240       0.0%    100.0%      0.0%
 flops    76 x   160 x  1157            619041280       0.0%    100.0%      0.0%
 flops    76 x   167 x  1156            645565888       0.0%    100.0%      0.0%
 flops    76 x   167 x  1157            646124336       0.0%    100.0%      0.0%
 flops     5 x    14 x   160            818540800       0.0%    100.0%      0.0%
 flops    14 x     5 x   160            824700800       0.0%    100.0%      0.0%
 flops     5 x    14 x   167            854351960       0.0%    100.0%      0.0%
 flops    14 x     5 x   167            860781460       0.0%    100.0%      0.0%
 flops    32 x   160 x   160           1238630400       0.0%    100.0%      0.0%
 flops   124 x   160 x   160           1269760000       0.0%    100.0%      0.0%
 flops    32 x   167 x   160           1292820480       0.0%    100.0%      0.0%
 flops    32 x   160 x   167           1292820480       0.0%    100.0%      0.0%
 flops   124 x   167 x   160           1325312000       0.0%    100.0%      0.0%
 flops   124 x   160 x   167           1325312000       0.0%    100.0%      0.0%
 flops    32 x   167 x   167           1349381376       0.0%    100.0%      0.0%
 flops   124 x   167 x   167           1383294400       0.0%    100.0%      0.0%
 flops    14 x    14 x   160           1976620800       0.0%    100.0%      0.0%
 flops    14 x    14 x   167           2063097960       0.0%    100.0%      0.0%
 flops     5 x    32 x     5           3626560000       0.0%    100.0%      0.0%
 flops   119 x   160 x   160           3655680000       0.0%    100.0%      0.0%
 flops   119 x   167 x   160           3815616000       0.0%    100.0%      0.0%
 flops   119 x   160 x   167           3815616000       0.0%    100.0%      0.0%
 flops   119 x   167 x   167           3982549200       0.0%    100.0%      0.0%
 flops   124 x   160 x  1156           4036567040       0.0%    100.0%      0.0%
 flops   124 x   160 x  1157           4040058880       0.0%    100.0%      0.0%
 flops   124 x   167 x  1156           4213166848       0.0%    100.0%      0.0%
 flops   124 x   167 x  1157           4216811456       0.0%    100.0%      0.0%
 flops    32 x   160 x  1156           4368015360       0.0%    100.0%      0.0%
 flops    32 x   160 x  1157           4371793920       0.0%    100.0%      0.0%
 flops    32 x   167 x  1156           4559116032       0.0%    100.0%      0.0%
 flops    32 x   167 x  1157           4563059904       0.0%    100.0%      0.0%
 flops    14 x    32 x     5           8365593600       0.0%    100.0%      0.0%
 flops     5 x    32 x    14           8365593600       0.0%    100.0%      0.0%
 flops   119 x   160 x  1156          11621406720       0.0%    100.0%      0.0%
 flops   119 x   160 x  1157          11631459840       0.0%    100.0%      0.0%
 flops   119 x   167 x  1156          12129843264       0.0%    100.0%      0.0%
 flops   119 x   167 x  1157          12140336208       0.0%    100.0%      0.0%
 flops    14 x    32 x    14          19721676800       0.0%    100.0%      0.0%
 flops inhomo. stacks                 12115083168     100.0%      0.0%      0.0%
 flops total                       178.289236E+09       6.8%     93.2%      0.0%
 flops max/rank                     51.551022E+09      12.0%     88.0%      0.0%
 matmuls inhomo. stacks                       576     100.0%      0.0%      0.0%
 matmuls total                            8737467       0.0%    100.0%      0.0%
 number of processed stacks                 34135       1.7%     98.3%      0.0%
 average stack size                                     1.0     260.3       0.0
 marketing flops                   265.308586E+09
 -------------------------------------------------------------------------------
 # multiplications                            238
 max memory usage/rank               3.923857E+09
 # max total images/rank                        1
 # max 3D layers                                1
 # MPI messages exchanged                    1904
 MPI messages size (bytes):
  total size                         2.880205E+09
  min size                           0.000000E+00
  max size                          10.709192E+06
  average size                       1.512713E+06
 MPI breakdown and total messages size (bytes):
             size <=      128                  10                        0
       128 < size <=     8192                   0                        0
      8192 < size <=    32768                   0                        0
     32768 < size <=   131072                   2                    82312
    131072 < size <=  4194304                1692               1426899816
   4194304 < size <= 16777216                 200               1453223760
  16777216 < size                               0                        0
 -------------------------------------------------------------------------------
 -                                                                             -
 -                      DBCSR MESSAGE PASSING PERFORMANCE                      -
 -                                                                             -
 -------------------------------------------------------------------------------
 ROUTINE             CALLS      AVE VOLUME [Bytes]
 MP_Bcast               91                     12.
 MP_Allreduce         1452                     28.
 MP_Alltoall          1007                 273625.
 MP_ISend             1900                 398160.
 MP_IRecv             1900                 395989.
 -------------------------------------------------------------------------------

 -------------------------------------------------------------------------------
 -                                                                             -
 -                                GRID STATISTICS                              -
 -                                                                             -
 -------------------------------------------------------------------------------
 LP    KERNEL             BACKEND                              COUNT     PERCENT
 1     collocate ortho    GPU                                 638506      22.12%
 1     integrate ortho    GPU                                 580460      20.11%
 0     collocate ortho    GPU                                 405581      14.05%
 0     integrate ortho    GPU                                 368710      12.77%
 2     collocate ortho    GPU                                 364793      12.64%
 2     integrate ortho    GPU                                 331630      11.49%
 3     collocate ortho    GPU                                  93478       3.24%
 3     integrate ortho    GPU                                  84980       2.94%
 4     collocate ortho    GPU                                   8976       0.31%
 4     integrate ortho    GPU                                   8160       0.28%
 0     collocate general  REF                                   1012       0.04%
 -------------------------------------------------------------------------------

 MEMORY| Estimated peak process memory [MiB]                                3743

 -------------------------------------------------------------------------------
 -                                                                             -
 -                         MESSAGE PASSING PERFORMANCE                         -
 -                                                                             -
 -------------------------------------------------------------------------------

 ROUTINE             CALLS      AVE VOLUME [Bytes]
 MP_Group                8
 MP_Bcast             9041               10015582.
 MP_Allreduce         2241                   6773.
 MP_Sync                19
 MP_Alltoall           220              204110814.
 MP_SendRecv           196                  70080.
 MP_ISendRecv          189                2270592.
 MP_Wait               397
 MP_ISend              156               11824942.
 MP_IRecv              156               11824942.
 MP_Recv                 8                 592128.
 -------------------------------------------------------------------------------


 -------------------------------------------------------------------------------
 -                                                                             -
 -                           R E F E R E N C E S                               -
 -                                                                             -
 -------------------------------------------------------------------------------
 
 CP2K version 9.1, the CP2K developers group (2021).
 CP2K is freely available from https://www.cp2k.org/ .

 Kuehne,Thomas D.; Iannuzzi,Marcella; Del Ben,Mauro;
 Rybkin,Vladimir V.; Seewald,Patrick; Stein,Frederick; Laino,Teodoro;
 Khaliullin,Rustam Z.; Schuett,Ole; Schiffmann,Florian; Golze,Dorothea;
 Wilhelm,Jan; Chulkov,Sergey; Bani-Hashemian,Mohammad Hossein;
 Weber,Valery; Borstnik,Urban; Taillefumier,Mathieu;
 Jakobovits,Alice Shoshana; Lazzaro,Alfio; Pabst,Hans; Mueller,Tiziano;
 Schade,Robert; Guidon,Manuel; Andermatt,Samuel; Holmberg,Nico;
 Schenter,Gregory K.; Hehn,Anna; Bussy,Augustin; Belleflamme,Fabian;
 Tabacchi,Gloria; Gloess,Andreas; Lass,Michael; Bethune,Iain;
 Mundy,Christopher J.; Plessl,Christian; Watkins,Matt;
 VandeVondele,Joost; Krack,Matthias; Hutter,Juerg. 
 The Journal of Chemical Physics, 152 (19), (2020). 
 CP2K: An electronic structure and molecular dynamics software package -
 Quickstep: Efficient and accurate electronic structure calculations.
 https://doi.org/10.1063/5.0007045

 Schuett, Ole; Messmer, Peter; Hutter, Juerg; VandeVondele, Joost. 
 Electronic Structure Calculations on Graphics Processing Units, John
 Wiley & Sons, Ltd, 173-190 (2016). 
 GPU-Accelerated Sparse Matrix-Matrix Multiplication for
 Linear Scaling Density Functional Theory.
 https://doi.org/10.1002/9781118670712.ch8

 Heinecke, A; Henry, G; Hutchinson, M; Pabst, H. 
 Proceedings of Intl. Supercomputing Conference, 981-991 (2016). 
 LIBXSMM: Accelerating Small Matrix Multiplications
 by Runtime Code Generation.
 https://doi.org/10.1109/SC.2016.83

 Borstnik, U; VandeVondele, J; Weber, V; Hutter, J. 
 PARALLEL COMPUTING, 40 (5-6), 47-58 (2014). 
 Sparse matrix multiplication: The distributed block-compressed sparse
 row library.
 https://doi.org/10.1016/j.parco.2014.03.012

 Hutter, J; Iannuzzi, M; Schiffmann, F; VandeVondele, J. 
 WIREs Comput Mol Sci., 4 (1), 15-25 (2014). 
 CP2K: atomistic simulations of condensed matter systems.
 https://doi.org/10.1002/wcms.1159

 Laino, T; Mohamed, F; Laio, A; Parrinello, M. 
 JOURNAL OF CHEMICAL THEORY AND COMPUTATION, 2 (5), 1370-1378 (2006). 
 An efficient linear-scaling electrostatic coupling for treating
 periodic boundary conditions in QM/MM simulations.
 https://doi.org/10.1021/ct6001169

 Laino, T; Mohamed, F; Laio, A; Parrinello, M. 
 JOURNAL OF CHEMICAL THEORY AND COMPUTATION, 1 (6), 1176-1184 (2005). 
 An efficient real space multigrid QM/MM electrostatic coupling.
 https://doi.org/10.1021/ct050123f

 Krack, M. 
 THEORETICAL CHEMISTRY ACCOUNTS, 114 (1-3), 145-152 (2005). 
 Pseudopotentials for H to Kr optimized for gradient-corrected
 exchange-correlation functionals.
 https://doi.org/10.1007/s00214-005-0655-y

 VandeVondele, J; Krack, M; Mohamed, F; Parrinello, M; Chassaing, T;
 Hutter, J. COMPUTER PHYSICS COMMUNICATIONS, 167 (2), 103-128 (2005). 
 QUICKSTEP: Fast and accurate density functional calculations using a
 mixed Gaussian and plane waves approach.
 https://doi.org/10.1016/j.cpc.2004.12.014

 Frigo, M; Johnson, SG. 
 PROCEEDINGS OF THE IEEE, 93 (2), 216-231 (2005). 
 The design and implementation of FFTW3.
 https://doi.org/10.1109/JPROC.2004.840301

 VandeVondele, J; Hutter, J. 
 JOURNAL OF CHEMICAL PHYSICS, 118 (10), 4365-4369 (2003). 
 An efficient orbital transformation method for electronic structure
 calculations.
 https://doi.org/10.1063/1.1543154

 Hartwigsen, C; Goedecker, S; Hutter, J. 
 PHYSICAL REVIEW B, 58 (7), 3641-3662 (1998). 
 Relativistic separable dual-space Gaussian pseudopotentials from H to Rn.
 https://doi.org/10.1103/PhysRevB.58.3641

 Lippert, G; Hutter, J; Parrinello, M. 
 MOLECULAR PHYSICS, 92 (3), 477-487 (1997). 
 A hybrid Gaussian and plane wave density functional scheme.
 https://doi.org/10.1080/002689797170220

 Goedecker, S; Teter, M; Hutter, J. 
 PHYSICAL REVIEW B, 54 (3), 1703-1710 (1996). 
 Separable dual-space Gaussian pseudopotentials.
 https://doi.org/10.1103/PhysRevB.54.1703

 ESSMANN, U; PERERA, L; BERKOWITZ, ML; DARDEN, T; LEE, H; PEDERSEN, LG. 
 JOURNAL OF CHEMICAL PHYSICS, 103 (19), 8577-8593 (1995). 
 A SMOOTH PARTICLE MESH EWALD METHOD.
 https://doi.org/10.1063/1.470117

 BLOCHL, PE. 
 JOURNAL OF CHEMICAL PHYSICS, 103 (17), 7422-7428 (1995). 
 ELECTROSTATIC DECOUPLING OF PERIODIC IMAGES OF PLANE-WAVE-EXPANDED
 DENSITIES AND DERIVED ATOMIC POINT CHARGES.
 https://doi.org/10.1063/1.470314

 BECKE, AD. PHYSICAL REVIEW A, 38 (6), 3098-3100 (1988). 
 DENSITY-FUNCTIONAL EXCHANGE-ENERGY APPROXIMATION WITH CORRECT
 ASYMPTOTIC-BEHAVIOR.
 https://doi.org/10.1103/PhysRevA.38.3098

 LEE, CT; YANG, WT; PARR, RG. 
 PHYSICAL REVIEW B, 37 (2), 785-789 (1988). 
 DEVELOPMENT OF THE COLLE-SALVETTI CORRELATION-ENERGY FORMULA INTO A
 FUNCTIONAL OF THE ELECTRON-DENSITY.
 https://doi.org/10.1103/PhysRevB.37.785


 -------------------------------------------------------------------------------
 -                                                                             -
 -                                T I M I N G                                  -
 -                                                                             -
 -------------------------------------------------------------------------------
 SUBROUTINE                       CALLS  ASD         SELF TIME        TOTAL TIME
                                MAXIMUM       AVERAGE  MAXIMUM  AVERAGE  MAXIMUM
 CP2K                                 1  1.0    0.514    0.518  145.396  145.397
 qmmm_env_create                      1  2.0    7.708    7.803   57.801   57.803
 fist_init                            1  3.0    0.016    0.034   43.245   43.245
 qs_energies                          1  2.0    0.000    0.000   36.313   36.314
 qmmm_el_coupling                     1  2.0    0.000    0.000   36.074   36.078
 qmmm_elec_with_gaussian              1  3.0    0.009    0.009   36.071   36.075
 qmmm_elec_with_gaussian_low          1  4.0    0.000    0.000   34.172   35.790
 scf_env_do_scf                       1  3.0    0.000    0.000   26.724   26.724
 force_field_control                  1  4.0    0.000    0.001   26.319   26.355
 rdparm_amber_8                       2  6.5   20.633   20.719   24.064   24.070
 qmmm_elec_gaussian_low_G             1  5.0   22.515   23.173   22.515   23.173
 scf_env_do_scf_inner_loop           10  4.0    0.000    0.001   22.067   22.070
 qs_ks_update_qs_env                 11  5.0    0.000    0.000   19.478   19.481
 rebuild_ks_matrix                   10  6.0    0.000    0.000   19.463   19.466
 qs_ks_build_kohn_sham_matrix        10  7.0    0.001    0.001   19.463   19.466
 topology_control                     1  4.0    0.008    0.017   16.538   16.545
 fist_calc_energy_force               1  2.0    0.007    0.007   14.181   14.183
 force_field_pack                     1  5.0    0.017    0.018   14.010   14.041
 pw_transfer                        216  9.4    0.013    0.014   13.174   13.310
 fft_wrap_pw1pw2                    181 10.5    0.002    0.002   13.065   13.198
 fft_wrap_pw1pw2_150                114 11.8    0.568    0.573   12.678   12.801
 qmmm_elec_gaussian_low_R             1  5.0    0.000    0.000   11.657   12.617
 qmmm_elec_with_gaussian_LG           1  6.0   11.657   12.617   11.657   12.617
 connectivity_control                 2  4.0    0.000    0.000   12.569   12.584
 read_force_field_amber               1  5.0    0.004    0.004   12.240   12.246
 read_connectivity_amber              1  6.0    0.000    0.000   11.829   11.832
 qs_vxc_create                       10  8.0    0.000    0.000   11.071   11.071
 xc_vxc_pw_create                    10  9.0    1.717    1.779   11.071   11.071
 fft3d_ps                           181 12.5    6.711    6.772   10.480   10.618
 force_field_pack_ub                  1  6.0    9.508    9.540    9.508    9.540
 list_control                         1  3.0    0.013    0.013    8.460    8.516
 build_fist_neighbor_lists            1  4.0    0.000    0.000    8.447    8.502
 build_neighbor_lists                 1  5.0    7.082    7.139    7.082    7.139
 qs_energies_init_hamiltonians        1  3.0    0.000    0.000    5.522    5.522
 qs_env_update_s_mstruct              1  4.0    0.000    0.000    5.484    5.487
 force_nonbond                        1  3.0    4.527    5.425    4.527    5.425
 cp_ddapc_init                        1  5.0    0.000    0.000    5.117    5.119
 cp_ddapc_create                      1  6.0    0.001    0.001    5.117    5.119
 ddapc_eval_AmI                       1  7.0    0.908    0.910    5.010    5.012
 xc_rho_set_and_dset_create          10 10.0    0.302    0.339    4.800    4.957
 init_scf_loop                        1  4.0    0.000    0.000    4.650    4.650
 eval_pw_TabLR                        3  3.0    1.464    4.561    4.630    4.632
 qs_ks_ddapc                         10  8.0    0.000    0.000    4.338    4.341
 mp_sum_dm3                           3  4.0    3.097    4.131    3.097    4.131
 build_A_matrix                       1  8.0    4.030    4.100    4.030    4.100
 init_scf_run                         1  3.0    0.000    0.000    4.065    4.066
 scf_env_initial_rho_setup            1  4.0    0.000    0.000    4.065    4.066
 qs_rho_update_rho                   11  5.0    0.000    0.000    3.945    3.946
 calculate_rho_elec                  11  6.0    0.331    0.331    3.945    3.946
 calculate_first_density_matrix       1  5.0    0.000    0.000    3.584    3.585
 density_rs2pw                       11  7.0    0.001    0.001    3.383    3.413
 cp_ddapc_apply_CD                   10  9.0    0.004    0.014    3.115    3.115
 make_basis_sm                        1  6.0    0.000    0.000    3.066    3.066
 mp_alltoall_z22v                   181 14.5    2.938    3.005    2.938    3.005
 -------------------------------------------------------------------------------

 The number of warnings for this run is : 1
 
 -------------------------------------------------------------------------------
  **** **** ******  **  PROGRAM ENDED AT                 2022-02-18 10:52:54.542
 ***** ** ***  *** **   PROGRAM RAN ON                                    r2i5n4
 **    ****   ******    PROGRAM RAN BY                                    hollyj
 ***** **    ** ** **   PROGRAM PROCESS ID                                 54969
  **** **  *******  **  PROGRAM STOPPED IN /lustre/home/w68/hollyj/CP2K/ClC253-B
                                           3LYP
