 DBCSR| CPU Multiplication driver                                           XSMM
 DBCSR| Multrec recursion limit                                              512
 DBCSR| Multiplication stack size                                          30000
 DBCSR| Maximum elements for images                                    UNLIMITED
 DBCSR| Multiplicative factor virtual images                                   1
 DBCSR| Use multiplication densification                                       F
 DBCSR| Multiplication size stacks                                             3
 DBCSR| Use memory pool for CPU allocation                                     F
 DBCSR| Number of 3D layers                                               SINGLE
 DBCSR| Use MPI memory allocation                                              F
 DBCSR| Use RMA algorithm                                                      F
 DBCSR| Use Communication thread                                               T
 DBCSR| Communication thread load                                             53
 DBCSR| MPI: My node id                                                        0
 DBCSR| MPI: Number of nodes                                                  16
 DBCSR| OMP: Current number of threads                                        10
 DBCSR| OMP: Max number of threads                                            10
 DBCSR| ACC: Number of devices/node                                            4
 DBCSR| ACC: Number of priority stack-buffers                                 40
 DBCSR| ACC: Number of posterior stack-buffers                                80
 DBCSR| ACC: Number of priority streams                                        4
 DBCSR| ACC: Number of posterior streams                                       4
 DBCSR| ACC: Avoid driver after busy                                           F
 DBCSR| ACC: Process inhomogeneous stacks                                      T
 DBCSR| ACC: Min. flop for processing                                          0
 DBCSR| ACC: Min. flop for sorting                                          4000
 DBCSR| ACC: Number of binning bins                                         4096
 DBCSR| ACC: Size of binning bins                                             16
 DBCSR| Split modifier for TAS multiplication algorithm                  1.0E+00


  **** **** ******  **  PROGRAM STARTED AT               2021-07-26 14:31:27.272
 ***** ** ***  *** **   PROGRAM STARTED ON                                r2i7n1
 **    ****   ******    PROGRAM STARTED BY                                hollyj
 ***** **    ** ** **   PROGRAM PROCESS ID                                 20318
  **** **  *******  **  PROGRAM STARTED IN /lustre/home/w68/hollyj/CP2K/Cirrus/G
                                           PU/cp2kMD/ClC-253-BLYP/6STEPS/4NODES/
                                           36CPN/10THREADS

 CP2K| version string:                                          CP2K version 8.2
 CP2K| source code revision number:                                  git:310b7ab
 CP2K| cp2kflags: omp libint fftw3 libxc elpa parallel mpi3 scalapack cosma pw_c
 CP2K|            uda xsmm cuda_profiling dbcsr_acc spglib mkl grid_cuda
 CP2K| is freely available from                            https://www.cp2k.org/
 CP2K| Program compiled at                          Thu Jul 22 18:07:58 BST 2021
 CP2K| Program compiled on                                                r2i5n7
 CP2K| Program compiled for                                           Cirrus-gcc
 CP2K| Data directory path       /lustre/home/w68/hollyj/CP2K/v8.2/cp2k-8.2/data
 CP2K| Input file name                                          ClC-253-cp2k.inp

 GLOBAL| Force Environment number                                              1
 GLOBAL| Basis set file name                                        BASIS_MOLOPT
 GLOBAL| Potential file name                                           POTENTIAL
 GLOBAL| MM Potential file name                                     MM_POTENTIAL
 GLOBAL| Coordinate file name                                            ClC.pdb
 GLOBAL| Method name                                                        CP2K
 GLOBAL| Project name                                               ClC-253-BLYP
 GLOBAL| Run type                                                             MD
 GLOBAL| FFT library                                                       FFTW3
 GLOBAL| Diagonalization library                                            ELPA
 GLOBAL| Minimum number of eigenvectors for ELPA usage                        16
 GLOBAL| Orthonormality check for eigenvectors                          DISABLED
 GLOBAL| Matrix multiplication library                                     COSMA
 GLOBAL| All-to-all communication in single precision                          F
 GLOBAL| FFTs using library dependent lengths                                  F
 GLOBAL| Grid backend                                                       AUTO
 GLOBAL| Global print level                                                  LOW
 GLOBAL| MPI I/O enabled                                                       T
 GLOBAL| Total number of message passing processes                            16
 GLOBAL| Number of threads for this process                                   10
 GLOBAL| This output is from process                                           0
 GLOBAL| CPU model name                 Intel(R) Xeon(R) Gold 6248 CPU @ 2.50GHz
 GLOBAL| CPUID                                                              1003

 MEMORY| system memory details [Kb]
 MEMORY|                        rank 0           min           max       average
 MEMORY| MemTotal            394535408     394535408     394535408     394535408
 MEMORY| MemFree             387462052     387021076     387462112     387162463
 MEMORY| Buffers                     0             0             0             0
 MEMORY| Cached                1038588        920648       1038588        960421
 MEMORY| Slab                   933172        933172        988408        965229
 MEMORY| SReclaimable           174936        174936        184008        179418
 MEMORY| MemLikelyFree       388675576     388125732     388675636     388302302



                      ************* ******** ***********   
                     ************* **********************  
                     ****     **** ****      ***********   
                     ******** ****  *******     ****       
                     *******  ****   *******   ****        
                     ****     ****       ****  ****        
                     ****     **** **********  ****        
                      ****     **** ********    ****       
                     FRONTIERS IN SIMULATION TECHNOLOGY    
                                                           
                        C.J. Mundy, S. Balasubramanian,    
                     Ken Bagchi, J. Hutter, Ari Seitsonen  
                      IFW Kuo, T. Laino, J. VandeVondele   
                                 Version 1.0               

                                                           


 EWALD| Summation is done by:                                               SPME
 EWALD| Alpha parameter [       ANGSTROM^-1]                              0.4000
 EWALD| Real Space Cutoff [          ANGSTROM]                            8.4348
 EWALD| G-space max. Miller index                         80        80        80
 EWALD| Spline interpolation order                                             6

 FORCEFIELD| WARNING: A non Critical ForceField parameter is missing! CP2K GOES!
 FORCEFIELD| Non critical parameters are:Urey-Bradley,Torsions,Impropers, Opbends and 1-4
 FORCEFIELD| All missing parameters will not contribute to the potential energy!
 FORCEFIELD| Activate the print key FF_INFO to have a list of missing parameters

 CHARGE_INFO| Total Charge of the Classical System:                     2.369895

 SPLINE_INFO| Generating 85491 splines for NONBONDED14 interactions 
              Due to 413 different atomic kinds
  ...8549  ...17098  ...25647  ...34196  ...42745  ...51294  ...59843  ...68392  ...76941  ...85490
 SPLINE_INFO| Number of unique splines computed:            254
 SPLINE_INFO| Done

 SPLINE_INFO| Generating 85491 splines for NONBONDED interactions 
              Due to 413 different atomic kinds
  ...8549  ...17098  ...25647  ...34196  ...42745  ...51294  ...59843  ...68392  ...76941  ...85490
 SPLINE_INFO| Number of unique splines computed:            254
 SPLINE_INFO| Done

 *******************************************************************************
 *******************************************************************************
 **                                                                           **
 **     #####                         ##              ##                      **
 **    ##   ##            ##          ##              ##                      **
 **   ##     ##                       ##            ######                    **
 **   ##     ##  ##   ##  ##   #####  ##  ##   ####   ##    #####    #####    **
 **   ##     ##  ##   ##  ##  ##      ## ##   ##      ##   ##   ##  ##   ##   **
 **   ##  ## ##  ##   ##  ##  ##      ####     ###    ##   ######   ######    **
 **    ##  ###   ##   ##  ##  ##      ## ##      ##   ##   ##       ##        **
 **     #######   #####   ##   #####  ##  ##  ####    ##    #####   ##        **
 **           ##                                                    ##        **
 **                                                                           **
 **                                                ... make the atoms dance   **
 **                                                                           **
 **            Copyright (C) by CP2K developers group (2000-2021)             **
 **                      J. Chem. Phys. 152, 194103 (2020)                    **
 **                                                                           **
 *******************************************************************************


 TOTAL NUMBERS AND MAXIMUM NUMBERS

  Total number of            - Atomic kinds:                                   6
                             - Atoms:                                        253
                             - Shell sets:                                   253
                             - Shells:                                       991
                             - Primitive Cartesian functions:               1770
                             - Cartesian basis functions:                   2309
                             - Spherical basis functions:                   2193

  Maximum angular momentum of- Orbital basis functions:                        2
                             - Local part of the GTH pseudopotential:          2
                             - Non-local part of the GTH pseudopotential:      2


 SCF PARAMETERS         Density guess:                                   RESTART
                        --------------------------------------------------------
                        max_scf:                                             300
                        max_scf_history:                                       0
                        max_diis:                                              4
                        --------------------------------------------------------
                        eps_scf:                                        1.00E-06
                        eps_scf_history:                                0.00E+00
                        eps_diis:                                       1.00E-01
                        eps_eigval:                                     1.00E-05
                        --------------------------------------------------------
                        level_shift [a.u.]:                                 0.00
                        --------------------------------------------------------
                        No outer SCF

 *******************************************************************************
 *******************************************************************************
 **                                                                           **
 **             #######  ##     ## ##     ## ##     ##                        **
 **            ##     ## ###   ### ###   ### ###   ###                        **
 **            ##     ## #### #### #### #### #### ####                        **
 **            ##     ## ## ### ## ## ### ## ## ### ##                        **
 **            ##  ## ## ##     ## ##     ## ##     ##                        **
 **            ##    ##  ##     ## ##     ## ##     ##  T.Laino and F.Mohamed **
 **             ##### ## ##     ## ##     ## ##     ##  2005 - 2015           **
 **                                                                           **
 **                                                     Calculation Started.. **
 *******************************************************************************
 *******************************************************************************

 MD_PAR| Molecular dynamics protocol (MD input parameters)
 MD_PAR| Ensemble type                                                       NVE
 MD_PAR| Number of time steps                                                  6
 MD_PAR| Time step [fs]                                                 1.000000
 MD_PAR| Temperature [K]                                              300.000000
 MD_PAR| Temperature tolerance [K]                                      0.000000
 MD_PAR| Print MD information every                                    1 step(s)
 MD_PAR| File type   Print frequency [steps]                          File names
 MD_PAR| Coordinates          1                           ClC-253-BLYP-pos-1.xyz
 MD_PAR| Velocities           1                           ClC-253-BLYP-vel-1.xyz
 MD_PAR| Energies             1                              ClC-253-BLYP-1.ener
 MD_PAR| Dump                20                           ClC-253-BLYP-1.restart

 ROT| Rotational analysis information
 ROT| Principal axes and moments of inertia [a.u.]
 ROT|                           1                   2                   3
 ROT| Eigenvalues      6.49908278768+119   9.69266118148+120   9.76757630270+120
 ROT|      x              0.966767624107     -0.244635852463     -0.074254027960
 ROT|      y             -0.214972405609     -0.620674029844     -0.754022952902
 ROT|      z             -0.138373501094     -0.744927545716      0.652637514880
 ROT| Number of rotovibrational vectors                                        6

 DOF| Calculation of degrees of freedom
 DOF| Number of atoms                                                     150925
 DOF| Number of intramolecular constraints                                     0
 DOF| Number of intermolecular constraints                                     0
 DOF| Invariants (translations + rotations)                                    3
 DOF| Degrees of freedom                                                  452772

 DOF| Restraints information
 DOF| Number of intramolecular restraints                                      0
 DOF| Number of intermolecular restraints                                      0

 MD_VEL| Velocities initialization
 MD_VEL| Initial temperature [K]                                      300.000000
 MD_VEL| COM velocity            -0.0000000000     0.0000000000     0.0000000000

  Translating the system in order to center the QM fragment in the QM box.

 Number of electrons:                                                        654
 Number of occupied orbitals:                                                327
 Number of molecular orbitals:                                               327

 Number of orbital functions:                                               2193
 Number of independent orbital functions:                                   2193

 Extrapolation method: initial_guess


 SCF WAVEFUNCTION OPTIMIZATION

  ----------------------------------- OT ---------------------------------------
  Minimizer      : DIIS                : direct inversion
                                         in the iterative subspace
                                         using   7 DIIS vectors
                                         safer DIIS on
  Preconditioner : FULL_ALL            : diagonalization, state selective
  Precond_solver : DEFAULT
  stepsize       :    0.15000000                  energy_gap     :    0.08000000
  eps_taylor     :   0.10000E-15                  max_taylor     :             4
  ----------------------------------- OT ---------------------------------------

  Step     Update method      Time    Convergence         Total energy    Change
  ------------------------------------------------------------------------------
  Decoupling Energy:                                               0.0674872996
  Recoupling Energy:                                              -0.0068222234
     1 OT DIIS     0.15E+00    7.6     0.00001627     -1098.7913677411 -1.10E+03
  Decoupling Energy:                                               0.0674861058
  Recoupling Energy:                                              -0.0068221797
     2 OT DIIS     0.15E+00    1.0     0.00000900     -1098.7913888938 -2.12E-05
  Decoupling Energy:                                               0.0674950603
  Recoupling Energy:                                              -0.0068223087
     3 OT DIIS     0.15E+00    1.0     0.00001460     -1098.7913964549 -7.56E-06
  Decoupling Energy:                                               0.0674896965
  Recoupling Energy:                                              -0.0068222498
     4 OT DIIS     0.15E+00    1.0     0.00000626     -1098.7913998880 -3.43E-06
  Decoupling Energy:                                               0.0674872278
  Recoupling Energy:                                              -0.0068222035
     5 OT DIIS     0.15E+00    1.0     0.00000578     -1098.7914020837 -2.20E-06
  Decoupling Energy:                                               0.0674888303
  Recoupling Energy:                                              -0.0068221999
     6 OT DIIS     0.15E+00    1.0     0.00000580     -1098.7914084634 -6.38E-06
  Decoupling Energy:                                               0.0674891663
  Recoupling Energy:                                              -0.0068222222
     7 OT DIIS     0.15E+00    1.0     0.00000561     -1098.7914167881 -8.32E-06
  Decoupling Energy:                                               0.0674892941
  Recoupling Energy:                                              -0.0068222412
     8 OT DIIS     0.15E+00    1.0     0.00000524     -1098.7914221585 -5.37E-06
  Decoupling Energy:                                               0.0674881906
  Recoupling Energy:                                              -0.0068221895
     9 OT DIIS     0.15E+00    1.0     0.00000516     -1098.7914280315 -5.87E-06
  Decoupling Energy:                                               0.0674891068
  Recoupling Energy:                                              -0.0068222186
    10 OT DIIS     0.15E+00    1.0     0.00000503     -1098.7914326439 -4.61E-06
  Decoupling Energy:                                               0.0674910255
  Recoupling Energy:                                              -0.0068222409
    11 OT DIIS     0.15E+00    1.0     0.00000505     -1098.7914451574 -1.25E-05
  Decoupling Energy:                                               0.0674893445
  Recoupling Energy:                                              -0.0068222092
    12 OT DIIS     0.15E+00    1.0     0.00000544     -1098.7914511015 -5.94E-06
  Decoupling Energy:                                               0.0674886192
  Recoupling Energy:                                              -0.0068221746
    13 OT DIIS     0.15E+00    1.0     0.00000506     -1098.7914589353 -7.83E-06
  Decoupling Energy:                                               0.0674897272
  Recoupling Energy:                                              -0.0068221819
    14 OT DIIS     0.15E+00    1.0     0.00000482     -1098.7914634348 -4.50E-06
  Decoupling Energy:                                               0.0674896707
  Recoupling Energy:                                              -0.0068222125
    15 OT DIIS     0.15E+00    1.0     0.00000471     -1098.7914698145 -6.38E-06
  Decoupling Energy:                                               0.0674902115
  Recoupling Energy:                                              -0.0068221925
    16 OT DIIS     0.15E+00    1.0     0.00000482     -1098.7914781062 -8.29E-06
  Decoupling Energy:                                               0.0674901472
  Recoupling Energy:                                              -0.0068221797
    17 OT DIIS     0.15E+00    1.0     0.00000498     -1098.7914886289 -1.05E-05
  Decoupling Energy:                                               0.0674880435
  Recoupling Energy:                                              -0.0068221048
    18 OT DIIS     0.15E+00    1.0     0.00000526     -1098.7915022664 -1.36E-05
  Decoupling Energy:                                               0.0674897586
  Recoupling Energy:                                              -0.0068221785
    19 OT DIIS     0.15E+00    1.0     0.00000471     -1098.7915055207 -3.25E-06
  Decoupling Energy:                                               0.0674872474
  Recoupling Energy:                                              -0.0068220953
    20 OT DIIS     0.15E+00    1.0     0.00000508     -1098.7915154560 -9.94E-06
  Decoupling Energy:                                               0.0674906167
  Recoupling Energy:                                              -0.0068222473
    21 OT DIIS     0.15E+00    1.0     0.00000457     -1098.7915235632 -8.11E-06
  Decoupling Energy:                                               0.0674882094
  Recoupling Energy:                                              -0.0068221454
    22 OT DIIS     0.15E+00    1.0     0.00000473     -1098.7915323917 -8.83E-06
  Decoupling Energy:                                               0.0674847826
  Recoupling Energy:                                              -0.0068220505
    23 OT DIIS     0.15E+00    1.0     0.00000542     -1098.7915548569 -2.25E-05
  Decoupling Energy:                                               0.0674699959
  Recoupling Energy:                                              -0.0068215480
    24 OT DIIS     0.15E+00    1.0     0.00001418     -1098.7915841560 -2.93E-05
  Decoupling Energy:                                               0.0674739933
  Recoupling Energy:                                              -0.0068217824
    25 OT SD       0.15E+00    1.0     0.00000724     -1098.7915868327 -2.68E-06
  Decoupling Energy:                                               0.0674836505
  Recoupling Energy:                                              -0.0068222788
    26 OT SD       0.15E+00    1.0     0.00001712     -1098.7915858285  1.00E-06
  Decoupling Energy:                                               0.0674808642
  Recoupling Energy:                                              -0.0068216362
    27 OT DIIS     0.15E+00    1.0     0.00005727     -1098.7915520467  3.38E-05
  Decoupling Energy:                                               0.0674947418
  Recoupling Energy:                                              -0.0068224728
    28 OT DIIS     0.15E+00    1.0     0.00000821     -1098.7915724251 -2.04E-05
  Decoupling Energy:                                               0.0674768507
  Recoupling Energy:                                              -0.0068218846
    29 OT DIIS     0.15E+00    1.0     0.00000539     -1098.7915985534 -2.61E-05
  Decoupling Energy:                                               0.0674835214
  Recoupling Energy:                                              -0.0068221007
    30 OT SD       0.15E+00    1.0     0.00000463     -1098.7916040725 -5.52E-06
  Decoupling Energy:                                               0.0674810456
  Recoupling Energy:                                              -0.0068220181
    31 OT DIIS     0.15E+00    1.0     0.00000894     -1098.7916049463 -8.74E-07
  Decoupling Energy:                                               0.0674855074
  Recoupling Energy:                                              -0.0068221340
    32 OT SD       0.15E+00    1.0     0.00000392     -1098.7916135978 -8.65E-06
  Decoupling Energy:                                               0.0674890623
  Recoupling Energy:                                              -0.0068222227
    33 OT DIIS     0.15E+00    1.0     0.00000540     -1098.7916148950 -1.30E-06
  Decoupling Energy:                                               0.0674876841
  Recoupling Energy:                                              -0.0068221546
    34 OT DIIS     0.15E+00    1.0     0.00000373     -1098.7916208253 -5.93E-06
  Decoupling Energy:                                               0.0674877213
  Recoupling Energy:                                              -0.0068221785
    35 OT DIIS     0.15E+00    1.0     0.00000370     -1098.7916231369 -2.31E-06
  Decoupling Energy:                                               0.0674875505
  Recoupling Energy:                                              -0.0068221509
    36 OT DIIS     0.15E+00    1.0     0.00000400     -1098.7916341154 -1.10E-05
  Decoupling Energy:                                               0.0674875254
  Recoupling Energy:                                              -0.0068221469
    37 OT DIIS     0.15E+00    1.0     0.00000377     -1098.7916392175 -5.10E-06
  Decoupling Energy:                                               0.0674846560
  Recoupling Energy:                                              -0.0068220695
    38 OT SD       0.15E+00    1.0     0.00000380     -1098.7916448029 -5.59E-06
  Decoupling Energy:                                               0.0674855381
  Recoupling Energy:                                              -0.0068221506
    39 OT DIIS     0.15E+00    1.0     0.00000675     -1098.7916456622 -8.59E-07
  Decoupling Energy:                                               0.0674807381
  Recoupling Energy:                                              -0.0068219768
    40 OT SD       0.15E+00    1.0     0.00000454     -1098.7916593298 -1.37E-05
  Decoupling Energy:                                               0.0674769458
  Recoupling Energy:                                              -0.0068219670
    41 OT SD       0.15E+00    1.0     0.00000937     -1098.7916596928 -3.63E-07
  Decoupling Energy:                                               0.0674895012
  Recoupling Energy:                                              -0.0068221138
    42 OT DIIS     0.15E+00    1.0     0.00002997     -1098.7916510972  8.60E-06
  Decoupling Energy:                                               0.0674782357
  Recoupling Energy:                                              -0.0068219392
    43 OT DIIS     0.15E+00    1.0     0.00000365     -1098.7916657043 -1.46E-05
  Decoupling Energy:                                               0.0674784760
  Recoupling Energy:                                              -0.0068219407
    44 OT DIIS     0.15E+00    1.0     0.00000337     -1098.7916710195 -5.32E-06
  Decoupling Energy:                                               0.0674762166
  Recoupling Energy:                                              -0.0068219283
    45 OT DIIS     0.15E+00    1.0     0.00000362     -1098.7916812888 -1.03E-05
  Decoupling Energy:                                               0.0674769520
  Recoupling Energy:                                              -0.0068219474
    46 OT DIIS     0.15E+00    1.0     0.00000327     -1098.7916849592 -3.67E-06
  Decoupling Energy:                                               0.0674741791
  Recoupling Energy:                                              -0.0068218721
    47 OT DIIS     0.15E+00    1.0     0.00000448     -1098.7916952856 -1.03E-05
  Decoupling Energy:                                               0.0674755255
  Recoupling Energy:                                              -0.0068219163
    48 OT DIIS     0.15E+00    1.0     0.00000311     -1098.7916980959 -2.81E-06
  Decoupling Energy:                                               0.0674742304
  Recoupling Energy:                                              -0.0068219045
    49 OT DIIS     0.15E+00    1.0     0.00000553     -1098.7917083171 -1.02E-05
  Decoupling Energy:                                               0.0674775577
  Recoupling Energy:                                              -0.0068219922
    50 OT DIIS     0.15E+00    1.0     0.00000379     -1098.7917138545 -5.54E-06
  Decoupling Energy:                                               0.0674794172
  Recoupling Energy:                                              -0.0068220209
    51 OT DIIS     0.15E+00    1.0     0.00000292     -1098.7917207754 -6.92E-06
  Decoupling Energy:                                               0.0674785962
  Recoupling Energy:                                              -0.0068219592
    52 OT DIIS     0.15E+00    1.0     0.00000418     -1098.7917246135 -3.84E-06
  Decoupling Energy:                                               0.0674806858
  Recoupling Energy:                                              -0.0068220148
    53 OT DIIS     0.15E+00    1.0     0.00000296     -1098.7917268985 -2.29E-06
  Decoupling Energy:                                               0.0674828511
  Recoupling Energy:                                              -0.0068220704
    54 OT DIIS     0.15E+00    1.0     0.00000536     -1098.7917366483 -9.75E-06
  Decoupling Energy:                                               0.0674845457
  Recoupling Energy:                                              -0.0068221027
    55 OT DIIS     0.15E+00    1.0     0.00000312     -1098.7917368523 -2.04E-07
  Decoupling Energy:                                               0.0674881574
  Recoupling Energy:                                              -0.0068221628
    56 OT SD       0.15E+00    1.0     0.00000634     -1098.7917470922 -1.02E-05
  Decoupling Energy:                                               0.0674739782
  Recoupling Energy:                                              -0.0068218352
    57 OT SD       0.15E+00    1.0     0.00001492     -1098.7917455911  1.50E-06
  Decoupling Energy:                                               0.0675039583
  Recoupling Energy:                                              -0.0068225999
    58 OT DIIS     0.15E+00    1.0     0.00004736     -1098.7917175236  2.81E-05
  Decoupling Energy:                                               0.0674835368
  Recoupling Energy:                                              -0.0068220172
    59 OT DIIS     0.15E+00    1.0     0.00000335     -1098.7917459876 -2.85E-05
  Decoupling Energy:                                               0.0674899687
  Recoupling Energy:                                              -0.0068222439
    60 OT DIIS     0.15E+00    1.0     0.00000258     -1098.7917499337 -3.95E-06
  Decoupling Energy:                                               0.0674929387
  Recoupling Energy:                                              -0.0068223217
    61 OT DIIS     0.15E+00    1.0     0.00000395     -1098.7917557393 -5.81E-06
  Decoupling Energy:                                               0.0674936180
  Recoupling Energy:                                              -0.0068223074
    62 OT DIIS     0.15E+00    1.0     0.00000310     -1098.7917584005 -2.66E-06
  Decoupling Energy:                                               0.0674928214
  Recoupling Energy:                                              -0.0068222706
    63 OT SD       0.15E+00    1.0     0.00000252     -1098.7917598035 -1.40E-06
  Decoupling Energy:                                               0.0674896212
  Recoupling Energy:                                              -0.0068222093
    64 OT DIIS     0.15E+00    1.0     0.00000349     -1098.7917602532 -4.50E-07
  Decoupling Energy:                                               0.0674942059
  Recoupling Energy:                                              -0.0068223189
    65 OT DIIS     0.15E+00    1.0     0.00000280     -1098.7917666793 -6.43E-06
  Decoupling Energy:                                               0.0674936669
  Recoupling Energy:                                              -0.0068222776
    66 OT DIIS     0.15E+00    1.0     0.00000303     -1098.7917685152 -1.84E-06
  Decoupling Energy:                                               0.0674963079
  Recoupling Energy:                                              -0.0068223423
    67 OT DIIS     0.15E+00    1.0     0.00000323     -1098.7917735268 -5.01E-06
  Decoupling Energy:                                               0.0674995517
  Recoupling Energy:                                              -0.0068224255
    68 OT SD       0.15E+00    1.0     0.00000371     -1098.7917786252 -5.10E-06
  Decoupling Energy:                                               0.0674871455
  Recoupling Energy:                                              -0.0068220790
    69 OT SD       0.15E+00    1.0     0.00000772     -1098.7917784656  1.60E-07
  Decoupling Energy:                                               0.0675067725
  Recoupling Energy:                                              -0.0068226901
    70 OT DIIS     0.15E+00    1.0     0.00002225     -1098.7917732378  5.23E-06
  Decoupling Energy:                                               0.0674927591
  Recoupling Energy:                                              -0.0068222602
    71 OT DIIS     0.15E+00    1.0     0.00000226     -1098.7917801501 -6.91E-06
  Decoupling Energy:                                               0.0674966062
  Recoupling Energy:                                              -0.0068223555
    72 OT DIIS     0.15E+00    1.0     0.00000256     -1098.7917837927 -3.64E-06
  Decoupling Energy:                                               0.0674997865
  Recoupling Energy:                                              -0.0068224447
    73 OT DIIS     0.15E+00    1.0     0.00000330     -1098.7917896443 -5.85E-06
  Decoupling Energy:                                               0.0675095750
  Recoupling Energy:                                              -0.0068227147
    74 OT DIIS     0.15E+00    1.0     0.00000541     -1098.7917973559 -7.71E-06
  Decoupling Energy:                                               0.0675084206
  Recoupling Energy:                                              -0.0068226650
    75 OT SD       0.15E+00    1.0     0.00000467     -1098.7917993105 -1.95E-06
  Decoupling Energy:                                               0.0674911616
  Recoupling Energy:                                              -0.0068221561
    76 OT SD       0.15E+00    1.0     0.00000995     -1098.7917986295  6.81E-07
  Decoupling Energy:                                               0.0675158989
  Recoupling Energy:                                              -0.0068229845
    77 OT DIIS     0.15E+00    1.0     0.00002850     -1098.7917895920  9.04E-06
  Decoupling Energy:                                               0.0674877805
  Recoupling Energy:                                              -0.0068221437
    78 OT DIIS     0.15E+00    1.0     0.00000330     -1098.7917970925 -7.50E-06
  Decoupling Energy:                                               0.0675000146
  Recoupling Energy:                                              -0.0068224305
    79 OT DIIS     0.15E+00    1.0     0.00000254     -1098.7918009459 -3.85E-06
  Decoupling Energy:                                               0.0674983477
  Recoupling Energy:                                              -0.0068223889
    80 OT DIIS     0.15E+00    1.0     0.00000174     -1098.7918019736 -1.03E-06
  Decoupling Energy:                                               0.0674932311
  Recoupling Energy:                                              -0.0068222609
    81 OT DIIS     0.15E+00    1.0     0.00000154     -1098.7918022740 -3.00E-07
  Decoupling Energy:                                               0.0674931105
  Recoupling Energy:                                              -0.0068222502
    82 OT DIIS     0.15E+00    1.0     0.00000158     -1098.7918030832 -8.09E-07
  Decoupling Energy:                                               0.0674941934
  Recoupling Energy:                                              -0.0068222773
    83 OT DIIS     0.15E+00    1.0     0.00000151     -1098.7918033922 -3.09E-07
  Decoupling Energy:                                               0.0674935293
  Recoupling Energy:                                              -0.0068222462
    84 OT DIIS     0.15E+00    1.0     0.00000146     -1098.7918049104 -1.52E-06
  Decoupling Energy:                                               0.0674921688
  Recoupling Energy:                                              -0.0068222163
    85 OT DIIS     0.15E+00    1.0     0.00000148     -1098.7918052912 -3.81E-07
  Decoupling Energy:                                               0.0674927037
  Recoupling Energy:                                              -0.0068222117
    86 OT DIIS     0.15E+00    1.0     0.00000137     -1098.7918068019 -1.51E-06
  Decoupling Energy:                                               0.0674932286
  Recoupling Energy:                                              -0.0068222212
    87 OT DIIS     0.15E+00    1.0     0.00000137     -1098.7918082012 -1.40E-06
  Decoupling Energy:                                               0.0674933002
  Recoupling Energy:                                              -0.0068222109
    88 OT DIIS     0.15E+00    1.0     0.00000135     -1098.7918094070 -1.21E-06
  Decoupling Energy:                                               0.0674940508
  Recoupling Energy:                                              -0.0068222214
    89 OT DIIS     0.15E+00    1.0     0.00000132     -1098.7918106732 -1.27E-06
  Decoupling Energy:                                               0.0674950598
  Recoupling Energy:                                              -0.0068222481
    90 OT DIIS     0.15E+00    1.0     0.00000135     -1098.7918118268 -1.15E-06
  Decoupling Energy:                                               0.0674958220
  Recoupling Energy:                                              -0.0068222625
    91 OT DIIS     0.15E+00    1.0     0.00000132     -1098.7918127581 -9.31E-07
  Decoupling Energy:                                               0.0674958879
  Recoupling Energy:                                              -0.0068222612
    92 OT DIIS     0.15E+00    1.0     0.00000129     -1098.7918136735 -9.15E-07
  Decoupling Energy:                                               0.0674962672
  Recoupling Energy:                                              -0.0068222797
    93 OT DIIS     0.15E+00    1.0     0.00000142     -1098.7918146237 -9.50E-07
  Decoupling Energy:                                               0.0674997119
  Recoupling Energy:                                              -0.0068223473
    94 OT DIIS     0.15E+00    1.0     0.00000146     -1098.7918163460 -1.72E-06
  Decoupling Energy:                                               0.0675001561
  Recoupling Energy:                                              -0.0068223567
    95 OT DIIS     0.15E+00    1.0     0.00000139     -1098.7918170192 -6.73E-07
  Decoupling Energy:                                               0.0674986205
  Recoupling Energy:                                              -0.0068223212
    96 OT DIIS     0.15E+00    1.0     0.00000126     -1098.7918177327 -7.14E-07
  Decoupling Energy:                                               0.0675042108
  Recoupling Energy:                                              -0.0068224457
    97 OT DIIS     0.15E+00    1.0     0.00000173     -1098.7918202593 -2.53E-06
  Decoupling Energy:                                               0.0675025181
  Recoupling Energy:                                              -0.0068223937
    98 OT DIIS     0.15E+00    1.0     0.00000131     -1098.7918219903 -1.73E-06
  Decoupling Energy:                                               0.0675113541
  Recoupling Energy:                                              -0.0068225883
    99 OT DIIS     0.15E+00    1.0     0.00000250     -1098.7918252682 -3.28E-06
  Decoupling Energy:                                               0.0675135549
  Recoupling Energy:                                              -0.0068226238
   100 OT DIIS     0.15E+00    1.0     0.00000283     -1098.7918264460 -1.18E-06
  Decoupling Energy:                                               0.0675143364
  Recoupling Energy:                                              -0.0068226420
   101 OT SD       0.15E+00    1.0     0.00000280     -1098.7918269364 -4.90E-07
  Decoupling Energy:                                               0.0675020561
  Recoupling Energy:                                              -0.0068222633
   102 OT SD       0.15E+00    1.0     0.00000578     -1098.7918267211  2.15E-07
  Decoupling Energy:                                               0.0675170929
  Recoupling Energy:                                              -0.0068228888
   103 OT DIIS     0.15E+00    1.0     0.00001536     -1098.7918240287  2.69E-06
  Decoupling Energy:                                               0.0675040228
  Recoupling Energy:                                              -0.0068224037
   104 OT SD       0.15E+00    1.0     0.00000119     -1098.7918269029 -2.87E-06
  Decoupling Energy:                                               0.0675030610
  Recoupling Energy:                                              -0.0068223828
   105 OT DIIS     0.15E+00    1.1     0.00000183     -1098.7918269891 -8.62E-08
  Decoupling Energy:                                               0.0675030237
  Recoupling Energy:                                              -0.0068223822
   106 OT SD       0.15E+00    1.0     0.00000107     -1098.7918279449 -9.56E-07
  Decoupling Energy:                                               0.0675015958
  Recoupling Energy:                                              -0.0068223424
   107 OT DIIS     0.15E+00    1.0     0.00000150     -1098.7918280347 -8.98E-08
  Decoupling Energy:                                               0.0675000635
  Recoupling Energy:                                              -0.0068223115
   108 OT DIIS     0.15E+00    1.0     0.00000102     -1098.7918291243 -1.09E-06
  Decoupling Energy:                                               0.0675016942
  Recoupling Energy:                                              -0.0068223446
   109 OT SD       0.15E+00    1.0     0.00000113     -1098.7918307067 -1.58E-06
  Decoupling Energy:                                               0.0674986297
  Recoupling Energy:                                              -0.0068222509
   110 OT DIIS     0.15E+00    1.0     0.00000207     -1098.7918307532 -4.65E-08
  Decoupling Energy:                                               0.0675008458
  Recoupling Energy:                                              -0.0068223089
   111 OT DIIS     0.15E+00    1.0     0.00000101     -1098.7918321548 -1.40E-06
  Decoupling Energy:                                               0.0675034721
  Recoupling Energy:                                              -0.0068223552
   112 OT SD       0.15E+00    1.0     0.00000140     -1098.7918337690 -1.61E-06
  Decoupling Energy:                                               0.0674990262
  Recoupling Energy:                                              -0.0068222240
   113 OT SD       0.15E+00    1.0     0.00000286     -1098.7918337640  5.01E-09
  Decoupling Energy:                                               0.0675053440
  Recoupling Energy:                                              -0.0068224713
   114 OT DIIS     0.15E+00    1.0     0.00000816     -1098.7918330834  6.81E-07
  Decoupling Energy:                                               0.0675023021
  Recoupling Energy:                                              -0.0068223193
   115 OT DIIS     0.15E+00    1.0     0.00000090     -1098.7918350485 -1.97E-06

  *** SCF run converged in   115 steps ***


  Electronic density on regular grids:       -654.0000008476       -0.0000008476
  Core density on regular grids:              654.9999999993       -0.0000000007
  Total charge density on r-space grids:        0.9999991517
  Total charge density g-space grids:           0.9999991517

  Overlap energy of the core charge distribution:               0.00004213532864
  Self energy of the core charge distribution:              -2459.11679630764229
  Core Hamiltonian energy:                                    751.03827327205408
  Hartree energy:                                            1002.26599847268164
  Exchange-correlation energy:                               -294.03608201885953
  QM/MM Electrostatic energy:                                 -98.94327060207581

  Total energy:                                             -1098.79183504851289
  Decoupling Energy:                                               0.0675042379
  Recoupling Energy:                                              -0.0068223486

 ENERGY| Total FORCE_EVAL ( QMMM ) energy [a.u.]:          -1469.875704554906179

 MD_INI| MD initialization
 MD_INI| Potential energy [hartree]                          -0.146987570455E+04
 MD_INI| Total kinetic energy [hartree]                       0.215076797492E+03
 MD_INI| QM kinetic energy [hartree]                          0.369606607592E+00
 MD_INI| Total temperature [K]                                        300.000000
 MD_INI| QM temperature [K]                                           307.542546
 MD_INI| Cell volume [bohr^3]                                 9.853827160554E+06
 MD_INI| Cell volume [ang^3]                                  1.460186515536E+06
 MD_INI| Cell lengths [bohr]      2.39870119E+02  2.39870119E+02  1.71258698E+02
 MD_INI| Cell lengths [ang]       1.26933800E+02  1.26933800E+02  9.06262000E+01
 MD_INI| Cell angles [deg]        9.00000000E+01  9.00000000E+01  9.00000000E+01

  Translating the system in order to center the QM fragment in the QM box.

 Number of electrons:                                                        654
 Number of occupied orbitals:                                                327
 Number of molecular orbitals:                                               327

 Number of orbital functions:                                               2193
 Number of independent orbital functions:                                   2193

 Extrapolation method: ASPC


 SCF WAVEFUNCTION OPTIMIZATION

  ----------------------------------- OT ---------------------------------------
  Minimizer      : DIIS                : direct inversion
                                         in the iterative subspace
                                         using   7 DIIS vectors
                                         safer DIIS on
  Preconditioner : FULL_ALL            : diagonalization, state selective
  Precond_solver : DEFAULT
  stepsize       :    0.15000000                  energy_gap     :    0.08000000
  eps_taylor     :   0.10000E-15                  max_taylor     :             4
  ----------------------------------- OT ---------------------------------------

  Step     Update method      Time    Convergence         Total energy    Change
  ------------------------------------------------------------------------------
  Decoupling Energy:                                               0.0676685646
  Recoupling Energy:                                              -0.0068237656
     1 OT DIIS     0.15E+00    1.7     0.00038786     -1098.3649187132 -1.10E+03
  Decoupling Energy:                                               0.0674457423
  Recoupling Energy:                                              -0.0068207505
     2 OT DIIS     0.15E+00    1.0     0.00028126     -1098.3740108627 -9.09E-03
  Decoupling Energy:                                               0.0676534438
  Recoupling Energy:                                              -0.0068214050
     3 OT DIIS     0.15E+00    1.0     0.00045485     -1098.3736134684  3.97E-04
  Decoupling Energy:                                               0.0674799807
  Recoupling Energy:                                              -0.0068214002
     4 OT DIIS     0.15E+00    1.0     0.00017690     -1098.3760483462 -2.43E-03
  Decoupling Energy:                                               0.0674311565
  Recoupling Energy:                                              -0.0068207547
     5 OT DIIS     0.15E+00    1.0     0.00005930     -1098.3765467495 -4.98E-04
  Decoupling Energy:                                               0.0674480301
  Recoupling Energy:                                              -0.0068203572
     6 OT DIIS     0.15E+00    1.0     0.00004396     -1098.3765894644 -4.27E-05
  Decoupling Energy:                                               0.0674579488
  Recoupling Energy:                                              -0.0068208248
     7 OT DIIS     0.15E+00    1.0     0.00001585     -1098.3766115185 -2.21E-05
  Decoupling Energy:                                               0.0674444036
  Recoupling Energy:                                              -0.0068207258
     8 OT DIIS     0.15E+00    1.0     0.00000827     -1098.3766176241 -6.11E-06
  Decoupling Energy:                                               0.0674431159
  Recoupling Energy:                                              -0.0068205893
     9 OT DIIS     0.15E+00    1.0     0.00000614     -1098.3766199496 -2.33E-06
  Decoupling Energy:                                               0.0674463621
  Recoupling Energy:                                              -0.0068208243
    10 OT DIIS     0.15E+00    1.0     0.00000529     -1098.3766227119 -2.76E-06
  Decoupling Energy:                                               0.0674354856
  Recoupling Energy:                                              -0.0068206239
    11 OT DIIS     0.15E+00    1.0     0.00000391     -1098.3766253704 -2.66E-06
  Decoupling Energy:                                               0.0674363547
  Recoupling Energy:                                              -0.0068207093
    12 OT DIIS     0.15E+00    1.0     0.00000309     -1098.3766276344 -2.26E-06
  Decoupling Energy:                                               0.0674337804
  Recoupling Energy:                                              -0.0068207255
    13 OT DIIS     0.15E+00    1.0     0.00000291     -1098.3766291149 -1.48E-06
  Decoupling Energy:                                               0.0674334134
  Recoupling Energy:                                              -0.0068207028
    14 OT DIIS     0.15E+00    1.0     0.00000290     -1098.3766298841 -7.69E-07
  Decoupling Energy:                                               0.0674327924
  Recoupling Energy:                                              -0.0068207266
    15 OT DIIS     0.15E+00    1.0     0.00000264     -1098.3766306911 -8.07E-07
  Decoupling Energy:                                               0.0674319916
  Recoupling Energy:                                              -0.0068207300
    16 OT DIIS     0.15E+00    1.0     0.00000242     -1098.3766313477 -6.57E-07
  Decoupling Energy:                                               0.0674326738
  Recoupling Energy:                                              -0.0068207336
    17 OT DIIS     0.15E+00    1.0     0.00000213     -1098.3766318996 -5.52E-07
  Decoupling Energy:                                               0.0674333941
  Recoupling Energy:                                              -0.0068207737
    18 OT DIIS     0.15E+00    1.0     0.00000187     -1098.3766327335 -8.34E-07
  Decoupling Energy:                                               0.0674305879
  Recoupling Energy:                                              -0.0068207157
    19 OT DIIS     0.15E+00    1.0     0.00000170     -1098.3766332475 -5.14E-07
  Decoupling Energy:                                               0.0674312220
  Recoupling Energy:                                              -0.0068207489
    20 OT DIIS     0.15E+00    1.0     0.00000150     -1098.3766338607 -6.13E-07
  Decoupling Energy:                                               0.0674308118
  Recoupling Energy:                                              -0.0068207379
    21 OT DIIS     0.15E+00    1.0     0.00000140     -1098.3766343489 -4.88E-07
  Decoupling Energy:                                               0.0674299910
  Recoupling Energy:                                              -0.0068207237
    22 OT DIIS     0.15E+00    1.0     0.00000141     -1098.3766347026 -3.54E-07
  Decoupling Energy:                                               0.0674290063
  Recoupling Energy:                                              -0.0068207129
    23 OT DIIS     0.15E+00    1.0     0.00000139     -1098.3766350572 -3.55E-07
  Decoupling Energy:                                               0.0674285713
  Recoupling Energy:                                              -0.0068207030
    24 OT DIIS     0.15E+00    1.0     0.00000135     -1098.3766353217 -2.65E-07
  Decoupling Energy:                                               0.0674284046
  Recoupling Energy:                                              -0.0068206934
    25 OT DIIS     0.15E+00    1.0     0.00000126     -1098.3766356238 -3.02E-07
  Decoupling Energy:                                               0.0674278952
  Recoupling Energy:                                              -0.0068206888
    26 OT DIIS     0.15E+00    1.0     0.00000115     -1098.3766359867 -3.63E-07
  Decoupling Energy:                                               0.0674264015
  Recoupling Energy:                                              -0.0068206538
    27 OT DIIS     0.15E+00    1.0     0.00000110     -1098.3766362067 -2.20E-07
  Decoupling Energy:                                               0.0674262827
  Recoupling Energy:                                              -0.0068206577
    28 OT DIIS     0.15E+00    1.0     0.00000104     -1098.3766364610 -2.54E-07
  Decoupling Energy:                                               0.0674260734
  Recoupling Energy:                                              -0.0068206467
    29 OT DIIS     0.15E+00    1.0     0.00000101     -1098.3766367121 -2.51E-07
  Decoupling Energy:                                               0.0674256124
  Recoupling Energy:                                              -0.0068206358
    30 OT DIIS     0.15E+00    1.0     0.00000101     -1098.3766369506 -2.38E-07
  Decoupling Energy:                                               0.0674251635
  Recoupling Energy:                                              -0.0068206300
    31 OT DIIS     0.15E+00    1.0     0.00000101     -1098.3766371921 -2.41E-07
  Decoupling Energy:                                               0.0674251522
  Recoupling Energy:                                              -0.0068206264
    32 OT DIIS     0.15E+00    1.0     0.00000099     -1098.3766373677 -1.76E-07

  *** SCF run converged in    32 steps ***


  Electronic density on regular grids:       -654.0000005663       -0.0000005663
  Core density on regular grids:              654.9999999988       -0.0000000012
  Total charge density on r-space grids:        0.9999994325
  Total charge density g-space grids:           0.9999994325

  Overlap energy of the core charge distribution:               0.00004332475856
  Self energy of the core charge distribution:              -2459.11679630764229
  Core Hamiltonian energy:                                    750.78618667064916
  Hartree energy:                                            1002.45030830166525
  Exchange-correlation energy:                               -293.96934594650497
  QM/MM Electrostatic energy:                                 -98.52703341064166

  Total energy:                                             -1098.37663736771583
  Decoupling Energy:                                               0.0674253562
  Recoupling Energy:                                              -0.0068206266

 ENERGY| Total FORCE_EVAL ( QMMM ) energy [a.u.]:          -1447.997668667653215

 MD| ***************************************************************************
 MD| Step number                                                               1
 MD| Time [fs]                                                          1.000000
 MD| Conserved quantity [hartree]                            -0.124929046419E+04
 MD| ---------------------------------------------------------------------------
 MD|                                          Instantaneous             Averages
 MD| CPU time per MD step [s]                    243.601559           243.601559
 MD| Energy drift per atom [K]           0.115251059071E+02   0.000000000000E+00
 MD| Potential energy [hartree]         -0.144799766867E+04  -0.144799766867E+04
 MD| Total kinetic energy [hartree]      0.198707204478E+03   0.198707204478E+03
 MD| QM kinetic energy [hartree]         0.373152772275E+00   0.373152772275E+00
 MD| Total temperature [K]                       277.166863           277.166863
 MD| QM temperature [K]                          310.493242           310.493242
 MD| ***************************************************************************

  Translating the system in order to center the QM fragment in the QM box.

 Number of electrons:                                                        654
 Number of occupied orbitals:                                                327
 Number of molecular orbitals:                                               327

 Number of orbital functions:                                               2193
 Number of independent orbital functions:                                   2193

 Extrapolation method: ASPC


 SCF WAVEFUNCTION OPTIMIZATION

  ----------------------------------- OT ---------------------------------------
  Minimizer      : DIIS                : direct inversion
                                         in the iterative subspace
                                         using   7 DIIS vectors
                                         safer DIIS on
  Preconditioner : FULL_ALL            : diagonalization, state selective
  Precond_solver : DEFAULT
  stepsize       :    0.15000000                  energy_gap     :    0.08000000
  eps_taylor     :   0.10000E-15                  max_taylor     :             4
  ----------------------------------- OT ---------------------------------------

  Step     Update method      Time    Convergence         Total energy    Change
  ------------------------------------------------------------------------------
  Decoupling Energy:                                               0.0674087827
  Recoupling Energy:                                              -0.0068195672
     1 OT DIIS     0.15E+00    1.7     0.00014519     -1097.1103376863 -1.10E+03
  Decoupling Energy:                                               0.0673603530
  Recoupling Energy:                                              -0.0068180698
     2 OT DIIS     0.15E+00    1.0     0.00010325     -1097.1115408175 -1.20E-03
  Decoupling Energy:                                               0.0674395924
  Recoupling Energy:                                              -0.0068200471
     3 OT DIIS     0.15E+00    1.0     0.00014074     -1097.1115711961 -3.04E-05
  Decoupling Energy:                                               0.0673879048
  Recoupling Energy:                                              -0.0068185926
     4 OT DIIS     0.15E+00    1.0     0.00007183     -1097.1118082120 -2.37E-04
  Decoupling Energy:                                               0.0673954110
  Recoupling Energy:                                              -0.0068183912
     5 OT DIIS     0.15E+00    1.0     0.00003196     -1097.1118771210 -6.89E-05
  Decoupling Energy:                                               0.0674106008
  Recoupling Energy:                                              -0.0068193004
     6 OT DIIS     0.15E+00    1.0     0.00001255     -1097.1118918663 -1.47E-05
  Decoupling Energy:                                               0.0673971055
  Recoupling Energy:                                              -0.0068186950
     7 OT DIIS     0.15E+00    1.0     0.00000811     -1097.1118945676 -2.70E-06
  Decoupling Energy:                                               0.0674024290
  Recoupling Energy:                                              -0.0068187642
     8 OT DIIS     0.15E+00    1.0     0.00000657     -1097.1118959141 -1.35E-06
  Decoupling Energy:                                               0.0674065738
  Recoupling Energy:                                              -0.0068189108
     9 OT DIIS     0.15E+00    1.0     0.00000358     -1097.1118968698 -9.56E-07
  Decoupling Energy:                                               0.0674111609
  Recoupling Energy:                                              -0.0068188892
    10 OT DIIS     0.15E+00    1.0     0.00000297     -1097.1118981908 -1.32E-06
  Decoupling Energy:                                               0.0674154501
  Recoupling Energy:                                              -0.0068189176
    11 OT DIIS     0.15E+00    1.0     0.00000243     -1097.1118994978 -1.31E-06
  Decoupling Energy:                                               0.0674242639
  Recoupling Energy:                                              -0.0068189805
    12 OT DIIS     0.15E+00    1.0     0.00000213     -1097.1119006937 -1.20E-06
  Decoupling Energy:                                               0.0674287048
  Recoupling Energy:                                              -0.0068190076
    13 OT DIIS     0.15E+00    1.0     0.00000223     -1097.1119013696 -6.76E-07
  Decoupling Energy:                                               0.0674307658
  Recoupling Energy:                                              -0.0068190347
    14 OT DIIS     0.15E+00    1.0     0.00000192     -1097.1119017553 -3.86E-07
  Decoupling Energy:                                               0.0674335333
  Recoupling Energy:                                              -0.0068190148
    15 OT DIIS     0.15E+00    1.0     0.00000181     -1097.1119023087 -5.53E-07
  Decoupling Energy:                                               0.0674373514
  Recoupling Energy:                                              -0.0068190772
    16 OT DIIS     0.15E+00    1.0     0.00000186     -1097.1119026809 -3.72E-07
  Decoupling Energy:                                               0.0674391076
  Recoupling Energy:                                              -0.0068191108
    17 OT DIIS     0.15E+00    1.0     0.00000164     -1097.1119029479 -2.67E-07
  Decoupling Energy:                                               0.0674412089
  Recoupling Energy:                                              -0.0068190909
    18 OT DIIS     0.15E+00    1.0     0.00000137     -1097.1119034580 -5.10E-07
  Decoupling Energy:                                               0.0674429044
  Recoupling Energy:                                              -0.0068191220
    19 OT DIIS     0.15E+00    1.0     0.00000126     -1097.1119038037 -3.46E-07
  Decoupling Energy:                                               0.0674442974
  Recoupling Energy:                                              -0.0068191307
    20 OT DIIS     0.15E+00    1.0     0.00000119     -1097.1119042092 -4.05E-07
  Decoupling Energy:                                               0.0674445640
  Recoupling Energy:                                              -0.0068191315
    21 OT DIIS     0.15E+00    1.0     0.00000120     -1097.1119045225 -3.13E-07
  Decoupling Energy:                                               0.0674440774
  Recoupling Energy:                                              -0.0068191330
    22 OT DIIS     0.15E+00    1.0     0.00000119     -1097.1119047476 -2.25E-07
  Decoupling Energy:                                               0.0674432081
  Recoupling Energy:                                              -0.0068191135
    23 OT DIIS     0.15E+00    1.0     0.00000113     -1097.1119050722 -3.25E-07
  Decoupling Energy:                                               0.0674431181
  Recoupling Energy:                                              -0.0068191266
    24 OT DIIS     0.15E+00    1.0     0.00000116     -1097.1119053201 -2.48E-07
  Decoupling Energy:                                               0.0674421339
  Recoupling Energy:                                              -0.0068191222
    25 OT DIIS     0.15E+00    1.0     0.00000112     -1097.1119055416 -2.21E-07
  Decoupling Energy:                                               0.0674408148
  Recoupling Energy:                                              -0.0068190934
    26 OT DIIS     0.15E+00    1.0     0.00000102     -1097.1119058502 -3.09E-07
  Decoupling Energy:                                               0.0674399048
  Recoupling Energy:                                              -0.0068191000
    27 OT DIIS     0.15E+00    1.0     0.00000112     -1097.1119061390 -2.89E-07
  Decoupling Energy:                                               0.0674395726
  Recoupling Energy:                                              -0.0068190959
    28 OT DIIS     0.15E+00    1.0     0.00000098     -1097.1119061944 -5.54E-08

  *** SCF run converged in    28 steps ***


  Electronic density on regular grids:       -654.0000002644       -0.0000002644
  Core density on regular grids:              654.9999999993       -0.0000000007
  Total charge density on r-space grids:        0.9999997349
  Total charge density g-space grids:           0.9999997349

  Overlap energy of the core charge distribution:               0.00004731806184
  Self energy of the core charge distribution:              -2459.11679630764229
  Core Hamiltonian energy:                                    750.43690756079343
  Hartree energy:                                            1002.71670906000099
  Exchange-correlation energy:                               -293.87544459634120
  QM/MM Electrostatic energy:                                 -97.27332922926634

  Total energy:                                             -1097.11190619439390
  Decoupling Energy:                                               0.0674380183
  Recoupling Energy:                                              -0.0068190789

 ENERGY| Total FORCE_EVAL ( QMMM ) energy [a.u.]:          -1445.975610954661079

 MD| ***************************************************************************
 MD| Step number                                                               2
 MD| Time [fs]                                                          2.000000
 MD| Conserved quantity [hartree]                            -0.125000601139E+04
 MD| ---------------------------------------------------------------------------
 MD|                                          Instantaneous             Averages
 MD| CPU time per MD step [s]                     68.481631           156.041595
 MD| Energy drift per atom [K]           0.100279936622E+02   0.501399683112E+01
 MD| Potential energy [hartree]         -0.144597561095E+04  -0.144698663981E+04
 MD| Total kinetic energy [hartree]      0.195969599564E+03   0.197338402021E+03
 MD| QM kinetic energy [hartree]         0.375000108792E+00   0.374076440534E+00
 MD| Total temperature [K]                       273.348314           275.257588
 MD| QM temperature [K]                          312.030375           311.261808
 MD| ***************************************************************************

  Translating the system in order to center the QM fragment in the QM box.

 Number of electrons:                                                        654
 Number of occupied orbitals:                                                327
 Number of molecular orbitals:                                               327

 Number of orbital functions:                                               2193
 Number of independent orbital functions:                                   2193

 Extrapolation method: ASPC


 SCF WAVEFUNCTION OPTIMIZATION

  ----------------------------------- OT ---------------------------------------
  Minimizer      : DIIS                : direct inversion
                                         in the iterative subspace
                                         using   7 DIIS vectors
                                         safer DIIS on
  Preconditioner : FULL_ALL            : diagonalization, state selective
  Precond_solver : DEFAULT
  stepsize       :    0.15000000                  energy_gap     :    0.08000000
  eps_taylor     :   0.10000E-15                  max_taylor     :             4
  ----------------------------------- OT ---------------------------------------

  Step     Update method      Time    Convergence         Total energy    Change
  ------------------------------------------------------------------------------
  Decoupling Energy:                                               0.0675533256
  Recoupling Energy:                                              -0.0068193280
     1 OT DIIS     0.15E+00    1.7     0.00011068     -1095.1861426970 -1.10E+03
  Decoupling Energy:                                               0.0674828531
  Recoupling Energy:                                              -0.0068161215
     2 OT DIIS     0.15E+00    1.0     0.00009180     -1095.1868076216 -6.65E-04
  Decoupling Energy:                                               0.0675255522
  Recoupling Energy:                                              -0.0068195332
     3 OT DIIS     0.15E+00    1.0     0.00012657     -1095.1867966484  1.10E-05
  Decoupling Energy:                                               0.0675625505
  Recoupling Energy:                                              -0.0068188739
     4 OT DIIS     0.15E+00    1.0     0.00005633     -1095.1869795192 -1.83E-04
  Decoupling Energy:                                               0.0675100029
  Recoupling Energy:                                              -0.0068172535
     5 OT DIIS     0.15E+00    1.0     0.00003097     -1095.1870150841 -3.56E-05
  Decoupling Energy:                                               0.0675173961
  Recoupling Energy:                                              -0.0068179642
     6 OT DIIS     0.15E+00    1.0     0.00000933     -1095.1870288187 -1.37E-05
  Decoupling Energy:                                               0.0675224281
  Recoupling Energy:                                              -0.0068178964
     7 OT DIIS     0.15E+00    1.0     0.00000746     -1095.1870299349 -1.12E-06
  Decoupling Energy:                                               0.0675214621
  Recoupling Energy:                                              -0.0068178626
     8 OT DIIS     0.15E+00    1.0     0.00000372     -1095.1870308416 -9.07E-07
  Decoupling Energy:                                               0.0675208929
  Recoupling Energy:                                              -0.0068178973
     9 OT DIIS     0.15E+00    1.0     0.00000225     -1095.1870312905 -4.49E-07
  Decoupling Energy:                                               0.0675212831
  Recoupling Energy:                                              -0.0068178619
    10 OT DIIS     0.15E+00    1.0     0.00000191     -1095.1870317769 -4.86E-07
  Decoupling Energy:                                               0.0675235676
  Recoupling Energy:                                              -0.0068178974
    11 OT DIIS     0.15E+00    1.0     0.00000164     -1095.1870323462 -5.69E-07
  Decoupling Energy:                                               0.0675241228
  Recoupling Energy:                                              -0.0068178675
    12 OT DIIS     0.15E+00    1.0     0.00000156     -1095.1870328088 -4.63E-07
  Decoupling Energy:                                               0.0675254270
  Recoupling Energy:                                              -0.0068178813
    13 OT DIIS     0.15E+00    1.0     0.00000160     -1095.1870331251 -3.16E-07
  Decoupling Energy:                                               0.0675272114
  Recoupling Energy:                                              -0.0068179051
    14 OT DIIS     0.15E+00    1.0     0.00000132     -1095.1870333292 -2.04E-07
  Decoupling Energy:                                               0.0675281735
  Recoupling Energy:                                              -0.0068178838
    15 OT DIIS     0.15E+00    1.0     0.00000125     -1095.1870335626 -2.33E-07
  Decoupling Energy:                                               0.0675291624
  Recoupling Energy:                                              -0.0068178956
    16 OT DIIS     0.15E+00    1.0     0.00000122     -1095.1870337656 -2.03E-07
  Decoupling Energy:                                               0.0675300182
  Recoupling Energy:                                              -0.0068179091
    17 OT DIIS     0.15E+00    1.0     0.00000107     -1095.1870339078 -1.42E-07
  Decoupling Energy:                                               0.0675312545
  Recoupling Energy:                                              -0.0068178969
    18 OT DIIS     0.15E+00    1.0     0.00000096     -1095.1870341605 -2.53E-07

  *** SCF run converged in    18 steps ***


  Electronic density on regular grids:       -654.0000000154       -0.0000000154
  Core density on regular grids:              654.9999999996       -0.0000000004
  Total charge density on r-space grids:        0.9999999842
  Total charge density g-space grids:           0.9999999842

  Overlap energy of the core charge distribution:               0.00004961137333
  Self energy of the core charge distribution:              -2459.11679630764229
  Core Hamiltonian energy:                                    750.02608347705984
  Hartree energy:                                            1003.02378277067078
  Exchange-correlation energy:                               -293.76776770339808
  QM/MM Electrostatic energy:                                 -95.35238600860401

  Total energy:                                             -1095.18703416054041
  Decoupling Energy:                                               0.0675326296
  Recoupling Energy:                                              -0.0068179128

 ENERGY| Total FORCE_EVAL ( QMMM ) energy [a.u.]:          -1460.415579756007219

 MD| ***************************************************************************
 MD| Step number                                                               3
 MD| Time [fs]                                                          3.000000
 MD| Conserved quantity [hartree]                            -0.125224647680E+04
 MD| ---------------------------------------------------------------------------
 MD|                                          Instantaneous             Averages
 MD| CPU time per MD step [s]                     58.416671           123.499954
 MD| Energy drift per atom [K]           0.534035293164E+01   0.512278219796E+01
 MD| Potential energy [hartree]         -0.146041557976E+04  -0.145146295313E+04
 MD| Total kinetic energy [hartree]      0.208169102951E+03   0.200948635665E+03
 MD| QM kinetic energy [hartree]         0.389729412897E+00   0.379294097988E+00
 MD| Total temperature [K]                       290.364798           280.293325
 MD| QM temperature [K]                          324.286346           315.603321
 MD| ***************************************************************************

  Translating the system in order to center the QM fragment in the QM box.

 Number of electrons:                                                        654
 Number of occupied orbitals:                                                327
 Number of molecular orbitals:                                               327

 Number of orbital functions:                                               2193
 Number of independent orbital functions:                                   2193

 Extrapolation method: ASPC


 SCF WAVEFUNCTION OPTIMIZATION

  ----------------------------------- OT ---------------------------------------
  Minimizer      : DIIS                : direct inversion
                                         in the iterative subspace
                                         using   7 DIIS vectors
                                         safer DIIS on
  Preconditioner : FULL_ALL            : diagonalization, state selective
  Precond_solver : DEFAULT
  stepsize       :    0.15000000                  energy_gap     :    0.08000000
  eps_taylor     :   0.10000E-15                  max_taylor     :             4
  ----------------------------------- OT ---------------------------------------

  Step     Update method      Time    Convergence         Total energy    Change
  ------------------------------------------------------------------------------
  Decoupling Energy:                                               0.0677315310
  Recoupling Energy:                                              -0.0068195197
     1 OT DIIS     0.15E+00    1.7     0.00008419     -1092.7816097184 -1.09E+03
  Decoupling Energy:                                               0.0676141071
  Recoupling Energy:                                              -0.0068141669
     2 OT DIIS     0.15E+00    1.0     0.00009953     -1092.7819020214 -2.92E-04
  Decoupling Energy:                                               0.0676505844
  Recoupling Energy:                                              -0.0068178721
     3 OT DIIS     0.15E+00    1.0     0.00009201     -1092.7819646993 -6.27E-05
  Decoupling Energy:                                               0.0677062288
  Recoupling Energy:                                              -0.0068185967
     4 OT DIIS     0.15E+00    1.0     0.00005039     -1092.7820486196 -8.39E-05
  Decoupling Energy:                                               0.0676509238
  Recoupling Energy:                                              -0.0068162290
     5 OT DIIS     0.15E+00    1.0     0.00002281     -1092.7820809413 -3.23E-05
  Decoupling Energy:                                               0.0676472954
  Recoupling Energy:                                              -0.0068166472
     6 OT DIIS     0.15E+00    1.0     0.00000797     -1092.7820890110 -8.07E-06
  Decoupling Energy:                                               0.0676530782
  Recoupling Energy:                                              -0.0068167056
     7 OT DIIS     0.15E+00    1.0     0.00000582     -1092.7820899579 -9.47E-07
  Decoupling Energy:                                               0.0676502257
  Recoupling Energy:                                              -0.0068166356
     8 OT DIIS     0.15E+00    1.0     0.00000316     -1092.7820905640 -6.06E-07
  Decoupling Energy:                                               0.0676475411
  Recoupling Energy:                                              -0.0068165805
     9 OT DIIS     0.15E+00    1.0     0.00000209     -1092.7820909743 -4.10E-07
[...]
 flops     7 x    32 x    13           7181457920       0.0%      0.0%    100.0%
 flops     5 x     7 x     5           7442846950       0.0%      0.0%    100.0%
 flops    13 x    32 x     7           8917708800       0.0%      0.0%    100.0%
 flops    13 x     7 x    32           8917708800       0.0%      0.0%    100.0%
 flops    13 x     7 x     5          16376658480       0.0%      0.0%    100.0%
 flops     5 x     7 x    13          16376658480       0.0%      0.0%    100.0%
 flops    13 x     7 x    13          35788745356       0.0%      0.0%    100.0%
 flops     5 x     5 x    32          42046944000       0.0%      0.0%    100.0%
 flops    13 x     5 x    32          91778252800       0.0%      0.0%    100.0%
 flops     5 x    13 x    32          91827340800       0.0%      0.0%    100.0%
 flops    32 x    32 x    32         112918528000       0.0%      0.0%    100.0%
 flops    32 x    32 x     5         149126144000       0.0%      0.0%    100.0%
 flops     5 x    32 x    32         185278361600       0.0%      0.0%    100.0%
 flops    13 x    13 x    32         201007788800       0.0%      0.0%    100.0%
 flops    32 x    32 x    13         328295219200       0.0%      0.0%    100.0%
 flops     5 x    32 x     5         340244432000       0.0%      0.0%    100.0%
 flops    13 x    32 x    32         407882874880       0.0%      0.0%    100.0%
 flops    13 x    32 x     5         748647244800       0.0%      0.0%    100.0%
 flops     5 x    32 x    13         748647244800       0.0%      0.0%    100.0%
 flops    13 x    32 x    13        1636056930560       0.0%      0.0%    100.0%
 flops inhomo. stacks                           0       0.0%      0.0%      0.0%
 flops total                         5.223987E+12       0.0%      0.0%    100.0%
 flops max/rank                    389.379262E+09       0.0%      0.0%    100.0%
 matmuls inhomo. stacks                         0       0.0%      0.0%      0.0%
 matmuls total                          969389322       0.0%      0.0%    100.0%
 number of processed stacks               8082865       0.0%      0.0%    100.0%
 average stack size                                     0.0     202.8     119.9
 marketing flops                     5.682660E+12
 -------------------------------------------------------------------------------
 # multiplications                           5531
 max memory usage/rank               2.227913E+09
 # max total images/rank                        1
 # max 3D layers                                1
 # MPI messages exchanged                  530976
 MPI messages size (bytes):
  total size                       230.982926E+09
  min size                           0.000000E+00
  max size                           2.437632E+06
  average size                     435.015750E+03
 MPI breakdown and total messages size (bytes):
             size <=      128                 924                        0
       128 < size <=     8192                   0                        0
      8192 < size <=    32768               14382                470245416
     32768 < size <=   131072              214470              11762449872
    131072 < size <=  4194304              301200             218757078744
   4194304 < size <= 16777216                   0                        0
  16777216 < size                               0                        0
 -------------------------------------------------------------------------------
 -                                                                             -
 -                      DBCSR MESSAGE PASSING PERFORMANCE                      -
 -                                                                             -
 -------------------------------------------------------------------------------
 ROUTINE             CALLS      AVE VOLUME [Bytes]
 MP_Bcast               41                     12.
 MP_Allreduce        19991                      8.
 MP_Alltoall         17557                  43782.
 MP_ISend            88468                 179743.
 MP_IRecv            88468                 174993.
 -------------------------------------------------------------------------------

 -------------------------------------------------------------------------------
 -                                                                             -
 -                                GRID STATISTICS                              -
 -                                                                             -
 -------------------------------------------------------------------------------
 LP    KERNEL             BACKEND                              COUNT     PERCENT
 3     collocate ortho    GPU                               86074321      24.31%
 3     integrate ortho    GPU                               85298327      24.09%
 2     collocate ortho    GPU                               56030402      15.82%
 2     integrate ortho    GPU                               54583213      15.41%
 4     integrate ortho    GPU                               36255800      10.24%
 4     collocate ortho    GPU                               34935048       9.86%
 5     integrate ortho    GPU                                 902431       0.25%
 0     collocate general  REF                                  28336       0.01%
 1     integrate general  REF                                  28336       0.01%
 -------------------------------------------------------------------------------

 MEMORY| Estimated peak process memory [MiB]                                2167

 -------------------------------------------------------------------------------
 -                                                                             -
 -                         MESSAGE PASSING PERFORMANCE                         -
 -                                                                             -
 -------------------------------------------------------------------------------

 ROUTINE             CALLS      AVE VOLUME [Bytes]
 MP_Group                8
 MP_Bcast            10325                8767351.
 MP_Allreduce         9522                  16870.
 MP_Sync               163
 MP_Alltoall          5380               55672358.
 MP_SendRecv          3052                  72198.
 MP_ISendRecv        16260                 119232.
 MP_Wait             42165
 MP_comm_split          72
 MP_ISend            22527                1177348.
 MP_IRecv            22520                1177507.
 MP_Recv               160                 561408.
 -------------------------------------------------------------------------------


 -------------------------------------------------------------------------------
 -                                                                             -
 -                           R E F E R E N C E S                               -
 -                                                                             -
 -------------------------------------------------------------------------------
 
 CP2K version 8.2, the CP2K developers group (2021).
 CP2K is freely available from https://www.cp2k.org/ .

 Kuehne,Thomas D.; Iannuzzi,Marcella; Del Ben,Mauro;
 Rybkin,Vladimir V.; Seewald,Patrick; Stein,Frederick; Laino,Teodoro;
 Khaliullin,Rustam Z.; Schuett,Ole; Schiffmann,Florian; Golze,Dorothea;
 Wilhelm,Jan; Chulkov,Sergey; Bani-Hashemian,Mohammad Hossein;
 Weber,Valery; Borstnik,Urban; Taillefumier,Mathieu;
 Jakobovits,Alice Shoshana; Lazzaro,Alfio; Pabst,Hans; Mueller,Tiziano;
 Schade,Robert; Guidon,Manuel; Andermatt,Samuel; Holmberg,Nico;
 Schenter,Gregory K.; Hehn,Anna; Bussy,Augustin; Belleflamme,Fabian;
 Tabacchi,Gloria; Gloess,Andreas; Lass,Michael; Bethune,Iain;
 Mundy,Christopher J.; Plessl,Christian; Watkins,Matt;
 VandeVondele,Joost; Krack,Matthias; Hutter,Juerg. 
 The Journal of Chemical Physics, 152 (19), (2020). 
 CP2K: An electronic structure and molecular dynamics software package -
 Quickstep: Efficient and accurate electronic structure calculations.
 https://doi.org/10.1063/5.0007045

 Schuett, Ole; Messmer, Peter; Hutter, Juerg; VandeVondele, Joost. 
 Electronic Structure Calculations on Graphics Processing Units, John
 Wiley & Sons, Ltd, 173-190 (2016). 
 GPU-Accelerated Sparse Matrix-Matrix Multiplication for
 Linear Scaling Density Functional Theory.
 https://doi.org/10.1002/9781118670712.ch8

 Heinecke, A; Henry, G; Hutchinson, M; Pabst, H. 
 Proceedings of Intl. Supercomputing Conference, 981-991 (2016). 
 LIBXSMM: Accelerating Small Matrix Multiplications
 by Runtime Code Generation.
 https://doi.org/10.1109/SC.2016.83

 Borstnik, U; VandeVondele, J; Weber, V; Hutter, J. 
 PARALLEL COMPUTING, 40 (5-6), 47-58 (2014). 
 Sparse matrix multiplication: The distributed block-compressed sparse
 row library.
 https://doi.org/10.1016/j.parco.2014.03.012

 Hutter, J; Iannuzzi, M; Schiffmann, F; VandeVondele, J. 
 WIREs Comput Mol Sci., 4 (1), 15-25 (2014). 
 CP2K: atomistic simulations of condensed matter systems.
 https://doi.org/10.1002/wcms.1159

 Marek, A; Blum, V; Johanni, R; Havu, V; Lang, B; Auckenthaler, T;
 Heinecke, A; Bungartz, H; Lederer, H. 
 Journal of Physics: Condensed Matter, 26 (21), (2014). 
 The ELPA library: scalable parallel eigenvalue solutions for
 electronic structure
 theory and computational science.
 https://doi.org/10.1088/0953-8984/26/21/213201

 VandeVondele, J; Hutter, J. 
 JOURNAL OF CHEMICAL PHYSICS, 127 (11), 114105 (2007). 
 Gaussian basis sets for accurate calculations on molecular systems in
 gas and condensed phases.
 https://doi.org/10.1063/1.2770708

 Kuhne, TD; Krack, M; Mohamed, FR; Parrinello, M. 
 PHYSICAL REVIEW LETTERS, 98 (6), 066401 (2007). 
 Efficient and accurate Car-Parrinello-like approach to
 Born-Oppenheimer molecular dynamics.
 https://doi.org/10.1103/PhysRevLett.98.066401

 Laino, T; Mohamed, F; Laio, A; Parrinello, M. 
 JOURNAL OF CHEMICAL THEORY AND COMPUTATION, 2 (5), 1370-1378 (2006). 
 An efficient linear-scaling electrostatic coupling for treating
 periodic boundary conditions in QM/MM simulations.
 https://doi.org/10.1021/ct6001169

 Laino, T; Mohamed, F; Laio, A; Parrinello, M. 
 JOURNAL OF CHEMICAL THEORY AND COMPUTATION, 1 (6), 1176-1184 (2005). 
 An efficient real space multigrid QM/MM electrostatic coupling.
 https://doi.org/10.1021/ct050123f

 Krack, M. 
 THEORETICAL CHEMISTRY ACCOUNTS, 114 (1-3), 145-152 (2005). 
 Pseudopotentials for H to Kr optimized for gradient-corrected
 exchange-correlation functionals.
 https://doi.org/10.1007/s00214-005-0655-y

 VandeVondele, J; Krack, M; Mohamed, F; Parrinello, M; Chassaing, T;
 Hutter, J. COMPUTER PHYSICS COMMUNICATIONS, 167 (2), 103-128 (2005). 
 QUICKSTEP: Fast and accurate density functional calculations using a
 mixed Gaussian and plane waves approach.
 https://doi.org/10.1016/j.cpc.2004.12.014

 Frigo, M; Johnson, SG. 
 PROCEEDINGS OF THE IEEE, 93 (2), 216-231 (2005). 
 The design and implementation of FFTW3.
 https://doi.org/10.1109/JPROC.2004.840301

 Kolafa, J. 
 JOURNAL OF COMPUTATIONAL CHEMISTRY, 25 (3), 335-342 (2004). 
 Time-reversible always stable predictor-corrector method for molecular dynamics of polarizable molecules.
 https://doi.org/10.1002/jcc.10385

 VandeVondele, J; Hutter, J. 
 JOURNAL OF CHEMICAL PHYSICS, 118 (10), 4365-4369 (2003). 
 An efficient orbital transformation method for electronic structure
 calculations.
 https://doi.org/10.1063/1.1543154

 Hartwigsen, C; Goedecker, S; Hutter, J. 
 PHYSICAL REVIEW B, 58 (7), 3641-3662 (1998). 
 Relativistic separable dual-space Gaussian pseudopotentials from H to Rn.
 https://doi.org/10.1103/PhysRevB.58.3641

 Lippert, G; Hutter, J; Parrinello, M. 
 MOLECULAR PHYSICS, 92 (3), 477-487 (1997). 
 A hybrid Gaussian and plane wave density functional scheme.
 https://doi.org/10.1080/002689797170220

 Goedecker, S; Teter, M; Hutter, J. 
 PHYSICAL REVIEW B, 54 (3), 1703-1710 (1996). 
 Separable dual-space Gaussian pseudopotentials.
 https://doi.org/10.1103/PhysRevB.54.1703

 ESSMANN, U; PERERA, L; BERKOWITZ, ML; DARDEN, T; LEE, H; PEDERSEN, LG. 
 JOURNAL OF CHEMICAL PHYSICS, 103 (19), 8577-8593 (1995). 
 A SMOOTH PARTICLE MESH EWALD METHOD.
 https://doi.org/10.1063/1.470117

 BLOCHL, PE. 
 JOURNAL OF CHEMICAL PHYSICS, 103 (17), 7422-7428 (1995). 
 ELECTROSTATIC DECOUPLING OF PERIODIC IMAGES OF PLANE-WAVE-EXPANDED
 DENSITIES AND DERIVED ATOMIC POINT CHARGES.
 https://doi.org/10.1063/1.470314

 BECKE, AD. PHYSICAL REVIEW A, 38 (6), 3098-3100 (1988). 
 DENSITY-FUNCTIONAL EXCHANGE-ENERGY APPROXIMATION WITH CORRECT
 ASYMPTOTIC-BEHAVIOR.
 https://doi.org/10.1103/PhysRevA.38.3098

 LEE, CT; YANG, WT; PARR, RG. 
 PHYSICAL REVIEW B, 37 (2), 785-789 (1988). 
 DEVELOPMENT OF THE COLLE-SALVETTI CORRELATION-ENERGY FORMULA INTO A
 FUNCTIONAL OF THE ELECTRON-DENSITY.
 https://doi.org/10.1103/PhysRevB.37.785


 -------------------------------------------------------------------------------
 -                                                                             -
 -                                T I M I N G                                  -
 -                                                                             -
 -------------------------------------------------------------------------------
 SUBROUTINE                       CALLS  ASD         SELF TIME        TOTAL TIME
                                MAXIMUM       AVERAGE  MAXIMUM  AVERAGE  MAXIMUM
 CP2K                                 1  1.0    0.262    0.299  619.599  619.602
 qs_mol_dyn_low                       1  2.0    0.008    0.008  561.101  562.459
 velocity_verlet                      6  3.0    0.027    0.032  388.403  388.577
 qs_forces                            7  3.9    0.001    0.001  308.109  308.117
 qs_energies                          7  4.9    0.000    0.000  297.594  297.604
 scf_env_do_scf                       7  5.9    0.001    0.001  279.165  279.166
 scf_env_do_scf_inner_loop          264  6.6    0.005    0.015  264.427  264.462
 rebuild_ks_matrix                  271  8.5    0.001    0.001  193.874  194.540
 qs_ks_build_kohn_sham_matrix       271  9.5    0.034    0.037  193.873  194.539
 qs_ks_update_qs_env                271  7.6    0.002    0.003  185.610  186.259
 qmmm_el_coupling                     7  3.9    0.000    0.000  160.844  160.855
 qmmm_elec_with_gaussian              7  4.9    0.019    0.022  160.841  160.853
 qmmm_elec_with_gaussian_low          7  5.9    0.000    0.000  138.539  159.077
 pw_transfer                       5497 12.2    0.357    0.386  125.504  126.947
 fft_wrap_pw1pw2                   4649 13.2    0.046    0.049  123.715  125.126
 qmmm_elec_gaussian_low_G             7  6.9  110.733  121.524  110.733  121.524
 fft_wrap_pw1pw2_150               2995 14.4    0.015    0.017  117.570  119.206
 qs_vxc_create                      271 10.5    0.005    0.007   93.672   93.732
 xc_vxc_pw_create                   271 11.5    2.837    2.925   93.667   93.728
 pw_cuda_c1dr3d_3d_ps              2467 15.8    0.043    0.047   67.293   69.247
 qmmm_forces                          7  3.9    0.028    0.031   62.957   62.962
 qmmm_forces_with_gaussian            7  4.9    0.039    0.047   51.265   61.737
 qmmm_force_with_gaussian_low         7  5.9    0.000    0.000   48.797   59.269
 pw_cuda_r3dc1d_3d_ps              2182 14.6    0.041    0.045   56.356   57.901
 qmmm_env_create                      1  2.0    7.258    7.414   56.779   56.783
 dbcsr_multiply_generic            5531 12.7    0.236    0.248   49.148   51.677
 qs_rho_update_rho                  271  7.6    0.001    0.001   45.148   46.115
 calculate_rho_elec                 271  8.6    2.053    2.057   45.147   46.114
 xc_rho_set_and_dset_create         271 12.5    2.809    2.954   44.109   45.337
 fist_init                            1  3.0    0.000    0.000   44.513   44.514
 sum_up_and_integrate               271 10.5    0.785    0.835   43.471   43.595
 multiply_cannon                   5531 13.7    0.923    0.960   35.953   42.947
 integrate_v_rspace                 271 11.5    0.007    0.008   42.685   42.795
 qs_scf_new_mos                     264  7.6    0.002    0.002   40.287   41.009
 qs_scf_loop_do_ot                  264  8.6    0.002    0.002   40.286   41.007
 multiply_cannon_loop              5531 14.7    0.626    0.659   33.217   40.211
 qmmm_forces_gaussian_low_R           7  6.9    0.000    0.000   31.801   39.783
 qmmm_forces_with_gaussian_LG         7  7.9   31.801   39.783   31.801   39.783
 qmmm_elec_gaussian_low_R             7  6.9    0.000    0.000   27.806   39.216
 qmmm_elec_with_gaussian_LG           7  7.9   27.806   39.216   27.806   39.216
 mp_alltoall_z22v                  4649 17.2   34.458   38.357   34.458   38.357
 qs_ks_ddapc                        271 10.5    0.003    0.004   37.004   37.486
 x_to_yz                           2467 16.8   16.811   19.138   34.540   37.181
 ot_scf_mini                        264  9.6    0.006    0.006   36.806   37.176
 density_rs2pw                      271  9.6    0.011    0.011   34.576   35.851
 multiply_cannon_multrec          22124 15.7    7.228   10.815   21.858   33.130
 mp_sync                            163 13.8   20.577   29.469   20.577   29.469
 force_field_control                  1  4.0    0.000    0.000   27.681   27.932
 yz_to_x                           2182 15.6    9.685   11.210   26.414   27.483
 cp_ddapc_apply_CD                  271 11.5    0.034    0.407   26.067   26.068
 ot_mini                            264 10.6    0.001    0.002   25.573   26.010
 fist_calc_energy_force               7  3.9    0.060    0.065   24.955   24.992
 potential_pw2rs                    271 12.5    0.089    0.096   24.529   24.597
 rdparm_amber_8                       2  6.5   20.972   21.780   24.481   24.570
 dbcsr_mm_accdrv_process          68244 16.3   13.456   20.991   14.178   21.911
 rs_pw_transfer                    2210 11.9    0.029    0.032   20.661   21.666
 mp_sum_d                          9803 11.1   13.255   21.271   13.255   21.271
 force_nonbond                        7  4.9   14.891   21.060   14.891   21.060
 pw_cuda_sf                        2467 16.8   19.364   20.130   19.364   20.130
 pw_cuda_fg                        2182 15.6   18.478   20.002   18.478   20.002
 mp_sum_dm                          908  5.1   14.368   19.885   14.368   19.885
 qmmm_forces_gaussian_low_G           7  6.9   16.996   19.486   16.996   19.486
 mp_waitall_1                    285126 16.7   11.874   17.786   11.874   17.786
 grid_integrate_task_list           271 12.5   13.956   17.671   13.956   17.671
 topology_control                     1  4.0    0.000    0.000   16.607   17.141
 pw_integral_ab                    3707  8.2   13.068   13.333   15.966   17.084
 qs_ot_get_derivative               264 11.6    0.002    0.003   15.280   15.653
 force_field_pack                     1  5.0    0.016    0.017   15.054   15.282
 pw_cuda_ffc                       2467 16.8   13.306   14.710   13.306   14.710
 init_scf_loop                        7  6.9    0.000    0.000   14.694   14.696
 connectivity_control                 2  4.0    0.000    0.000   12.678   12.710
 read_force_field_amber               1  5.0    0.004    0.005   12.556   12.647
 -------------------------------------------------------------------------------

 The number of warnings for this run is : 0
 
 -------------------------------------------------------------------------------
  **** **** ******  **  PROGRAM ENDED AT                 2021-07-26 14:41:50.554
 ***** ** ***  *** **   PROGRAM RAN ON                                    r2i7n1
 **    ****   ******    PROGRAM RAN BY                                    hollyj
 ***** **    ** ** **   PROGRAM PROCESS ID                                 20318
  **** **  *******  **  PROGRAM STOPPED IN /lustre/home/w68/hollyj/CP2K/Cirrus/G
                                           PU/cp2kMD/ClC-253-BLYP/6STEPS/4NODES/
                                           36CPN/10THREADS
