 DBCSR| CPU Multiplication driver                                           XSMM
 DBCSR| Multrec recursion limit                                              512
 DBCSR| Multiplication stack size                                           1000
 DBCSR| Maximum elements for images                                    UNLIMITED
 DBCSR| Multiplicative factor virtual images                                   1
 DBCSR| Use multiplication densification                                       T
 DBCSR| Multiplication size stacks                                             3
 DBCSR| Use memory pool for CPU allocation                                     F
 DBCSR| Number of 3D layers                                               SINGLE
 DBCSR| Use MPI memory allocation                                              F
 DBCSR| Use RMA algorithm                                                      F
 DBCSR| Use Communication thread                                               T
 DBCSR| Communication thread load                                             83
 DBCSR| MPI: My node id                                                        0
 DBCSR| MPI: Number of nodes                                                  36
 DBCSR| OMP: Current number of threads                                         2
 DBCSR| OMP: Max number of threads                                             2
 DBCSR| Split modifier for TAS multiplication algorithm                  1.0E+00


  **** **** ******  **  PROGRAM STARTED AT               2021-04-09 17:42:55.738
 ***** ** ***  *** **   PROGRAM STARTED ON                               r1i5n18
 **    ****   ******    PROGRAM STARTED BY                                hollyj
 ***** **    ** ** **   PROGRAM PROCESS ID                                 56951
  **** **  *******  **  PROGRAM STARTED IN /lustre/home/w68/hollyj/CP2K/Cirrus/C
                                           PU/cp2kMD/ClC-253-BLYP/6STEPS/2NODES/
                                           36CPN/2THREADS

 CP2K| version string:                                          CP2K version 8.1
 CP2K| source code revision number:                                  git:0b61f2f
 CP2K| cp2kflags: omp libint fftw3 libxc elpa parallel mpi3 scalapack xsmm spgli
 CP2K|            b mkl
 CP2K| is freely available from                            https://www.cp2k.org/
 CP2K| Program compiled at                           Mon Feb 1 13:14:42 GMT 2021
 CP2K| Program compiled on                                         cirrus-login1
 CP2K| Program compiled for                                           Cirrus-gcc
 CP2K| Data directory path       /lustre/home/w68/hollyj/CP2K/v8.1/cp2k-8.1/data
 CP2K| Input file name                                          ClC-253-cp2k.inp

 GLOBAL| Force Environment number                                              1
 GLOBAL| Basis set file name                                        BASIS_MOLOPT
 GLOBAL| Potential file name                                           POTENTIAL
 GLOBAL| MM Potential file name                                     MM_POTENTIAL
 GLOBAL| Coordinate file name                                            ClC.pdb
 GLOBAL| Method name                                                        CP2K
 GLOBAL| Project name                                               ClC-253-BLYP
 GLOBAL| Preferred FFT library                                             FFTW3
 GLOBAL| Preferred diagonalization lib.                                     ELPA
 GLOBAL| Run type                                                             MD
 GLOBAL| All-to-all communication in single precision                          F
 GLOBAL| FFTs using library dependent lengths                                  F
 GLOBAL| Global print level                                                  LOW
 GLOBAL| MPI I/O enabled                                                       T
 GLOBAL| Total number of message passing processes                            36
 GLOBAL| Number of threads for this process                                    2
 GLOBAL| This output is from process                                           0
 GLOBAL| CPU model name                Intel(R) Xeon(R) CPU E5-2695 v4 @ 2.10GHz
 GLOBAL| CPUID                                                              1002
 GLOBAL| Compiled for CPUID                                                 1001

 *** HINT in environment.F:802 :: The compiler target flags (x86_avx) used ***
 *** to build this binary cannot exploit all extensions of this CPU model  ***
 *** (x86_avx2). Consider compiler target flags as part of FCFLAGS and     ***
 *** CFLAGS (ARCH file).                                                   ***


 MEMORY| system memory details [Kb]
 MEMORY|                        rank 0           min           max       average
 MEMORY| MemTotal            263692180     263692180     263692180     263692180
 MEMORY| MemFree             259662484     259662484     260008252     259835383
 MEMORY| Buffers                     0             0             0             0
 MEMORY| Cached                 581912        405588        581912        493748
 MEMORY| Slab                   750248        703376        750248        726812
 MEMORY| SReclaimable           172228        159716        172228        165972
 MEMORY| MemLikelyFree       260416624     260416624     260573556     260495103



                      ************* ******** ***********   
                     ************* **********************  
                     ****     **** ****      ***********   
                     ******** ****  *******     ****       
                     *******  ****   *******   ****        
                     ****     ****       ****  ****        
                     ****     **** **********  ****        
                      ****     **** ********    ****       
                     FRONTIERS IN SIMULATION TECHNOLOGY    
                                                           
                        C.J. Mundy, S. Balasubramanian,    
                     Ken Bagchi, J. Hutter, Ari Seitsonen  
                      IFW Kuo, T. Laino, J. VandeVondele   
                                 Version 1.0               

                                                           


 EWALD| Summation is done by:                                               SPME
 EWALD| Alpha parameter [       ANGSTROM^-1]                              0.4000
 EWALD| Real Space Cutoff [          ANGSTROM]                            8.4348
 EWALD| G-space max. Miller index                         80        80        80
 EWALD| Spline interpolation order                                             6

 FORCEFIELD| WARNING: A non Critical ForceField parameter is missing! CP2K GOES!
 FORCEFIELD| Non critical parameters are:Urey-Bradley,Torsions,Impropers, Opbends and 1-4
 FORCEFIELD| All missing parameters will not contribute to the potential energy!
 FORCEFIELD| Activate the print key FF_INFO to have a list of missing parameters

 CHARGE_INFO| Total Charge of the Classical System:                     2.369895

 SPLINE_INFO| Generating 85491 splines for NONBONDED14 interactions 
              Due to 413 different atomic kinds
  ...8549  ...17098  ...25647  ...34196  ...42745  ...51294  ...59843  ...68392  ...76941  ...85490
 SPLINE_INFO| Number of unique splines computed:            254
 SPLINE_INFO| Done

 SPLINE_INFO| Generating 85491 splines for NONBONDED interactions 
              Due to 413 different atomic kinds
  ...8549  ...17098  ...25647  ...34196  ...42745  ...51294  ...59843  ...68392  ...76941  ...85490
 SPLINE_INFO| Number of unique splines computed:            254
 SPLINE_INFO| Done

 *******************************************************************************
 *******************************************************************************
 **                                                                           **
 **     #####                         ##              ##                      **
 **    ##   ##            ##          ##              ##                      **
 **   ##     ##                       ##            ######                    **
 **   ##     ##  ##   ##  ##   #####  ##  ##   ####   ##    #####    #####    **
 **   ##     ##  ##   ##  ##  ##      ## ##   ##      ##   ##   ##  ##   ##   **
 **   ##  ## ##  ##   ##  ##  ##      ####     ###    ##   ######   ######    **
 **    ##  ###   ##   ##  ##  ##      ## ##      ##   ##   ##       ##        **
 **     #######   #####   ##   #####  ##  ##  ####    ##    #####   ##        **
 **           ##                                                    ##        **
 **                                                                           **
 **                                                ... make the atoms dance   **
 **                                                                           **
 **            Copyright (C) by CP2K developers group (2000 - 2020)           **
 **                      J. Chem. Phys. 152, 194103 (2020)                    **
 **                                                                           **
 *******************************************************************************


 TOTAL NUMBERS AND MAXIMUM NUMBERS

  Total number of            - Atomic kinds:                                   6
                             - Atoms:                                        253
                             - Shell sets:                                   253
                             - Shells:                                       991
                             - Primitive Cartesian functions:               1770
                             - Cartesian basis functions:                   2309
                             - Spherical basis functions:                   2193

  Maximum angular momentum of- Orbital basis functions:                        2
                             - Local part of the GTH pseudopotential:          2
                             - Non-local part of the GTH pseudopotential:      2


 SCF PARAMETERS         Density guess:                                   RESTART
                        --------------------------------------------------------
                        max_scf:                                             300
                        max_scf_history:                                       0
                        max_diis:                                              4
                        --------------------------------------------------------
                        eps_scf:                                        1.00E-06
                        eps_scf_history:                                0.00E+00
                        eps_diis:                                       1.00E-01
                        eps_eigval:                                     1.00E-05
                        --------------------------------------------------------
                        level_shift [a.u.]:                                 0.00
                        --------------------------------------------------------
                        No outer SCF

 *******************************************************************************
 *******************************************************************************
 **                                                                           **
 **             #######  ##     ## ##     ## ##     ##                        **
 **            ##     ## ###   ### ###   ### ###   ###                        **
 **            ##     ## #### #### #### #### #### ####                        **
 **            ##     ## ## ### ## ## ### ## ## ### ##                        **
 **            ##  ## ## ##     ## ##     ## ##     ##                        **
 **            ##    ##  ##     ## ##     ## ##     ##  T.Laino and F.Mohamed **
 **             ##### ## ##     ## ##     ## ##     ##  2005 - 2015           **
 **                                                                           **
 **                                                     Calculation Started.. **
 *******************************************************************************
 *******************************************************************************

 MD_PAR| Molecular dynamics protocol (MD input parameters)
 MD_PAR| Ensemble type                                                       NVE
 MD_PAR| Number of time steps                                                  6
 MD_PAR| Time step [fs]                                                 1.000000
 MD_PAR| Temperature [K]                                              300.000000
 MD_PAR| Temperature tolerance [K]                                      0.000000
 MD_PAR| Print MD information every                                    1 step(s)
 MD_PAR| File type   Print frequency [steps]                          File names
 MD_PAR| Coordinates          1                           ClC-253-BLYP-pos-1.xyz
 MD_PAR| Velocities           1                           ClC-253-BLYP-vel-1.xyz
 MD_PAR| Energies             1                              ClC-253-BLYP-1.ener
 MD_PAR| Dump                20                           ClC-253-BLYP-1.restart

 ROT| Rotational analysis information
 ROT| Principal axes and moments of inertia [a.u.]
 ROT|                           1                   2                   3
 ROT| Eigenvalues      1.18228221563E+13   1.18772146411E+13   1.55923586977E+13
 ROT|      x             -0.973134378681     -0.230223222672      0.002597839626
 ROT|      y             -0.230225448758      0.973137141292     -0.000589052320
 ROT|      z              0.002392440703      0.001171315857      0.999996452117
 ROT| Number of rotovibrational vectors                                        6

 DOF| Calculation of degrees of freedom
 DOF| Number of atoms                                                     150925
 DOF| Number of intramolecular constraints                                     0
 DOF| Number of intermolecular constraints                                     0
 DOF| Invariants (translations + rotations)                                    3
 DOF| Degrees of freedom                                                  452772

 DOF| Restraints information
 DOF| Number of intramolecular restraints                                      0
 DOF| Number of intermolecular restraints                                      0

 MD_VEL| Velocities initialization
 MD_VEL| Initial temperature [K]                                      300.000000
 MD_VEL| COM velocity            -0.0000000000     0.0000000000     0.0000000000

  Translating the system in order to center the QM fragment in the QM box.

 Number of electrons:                                                        654
 Number of occupied orbitals:                                                327
 Number of molecular orbitals:                                               327

 Number of orbital functions:                                               2193
 Number of independent orbital functions:                                   2193

 Extrapolation method: initial_guess


 SCF WAVEFUNCTION OPTIMIZATION

  ----------------------------------- OT ---------------------------------------
  Minimizer      : DIIS                : direct inversion
                                         in the iterative subspace
                                         using   7 DIIS vectors
                                         safer DIIS on
  Preconditioner : FULL_ALL            : diagonalization, state selective
  Precond_solver : DEFAULT
  stepsize       :    0.15000000                  energy_gap     :    0.08000000
  eps_taylor     :   0.10000E-15                  max_taylor     :             4
  ----------------------------------- OT ---------------------------------------

  Step     Update method      Time    Convergence         Total energy    Change
  ------------------------------------------------------------------------------
  Decoupling Energy:                                               0.0675035110
  Recoupling Energy:                                              -0.0068223751
     1 OT DIIS     0.15E+00    3.7     0.00000111     -1098.7918323422 -1.10E+03
  Decoupling Energy:                                               0.0675004361
  Recoupling Energy:                                              -0.0068222921
     2 OT DIIS     0.15E+00    4.9     0.00000182     -1098.7918324061 -6.39E-08
  Decoupling Energy:                                               0.0675017270
  Recoupling Energy:                                              -0.0068223358
     3 OT DIIS     0.15E+00    4.9     0.00000098     -1098.7918324634 -5.73E-08

  *** SCF run converged in     3 steps ***


  Electronic density on regular grids:       -654.0000008477       -0.0000008477
  Core density on regular grids:              654.9999999993       -0.0000000007
  Total charge density on r-space grids:        0.9999991517
  Total charge density g-space grids:           0.9999991517

  Overlap energy of the core charge distribution:               0.00004213532864
  Self energy of the core charge distribution:              -2459.11679630764229
  Core Hamiltonian energy:                                    751.03829819310204
  Hartree energy:                                            1002.26599084240991
  Exchange-correlation energy:                               -294.03608875667476
  QM/MM Electrostatic energy:                                 -98.94327856994728

  Total energy:                                             -1098.79183246342359
  Decoupling Energy:                                               0.0675016129
  Recoupling Energy:                                              -0.0068223367

 ENERGY| Total FORCE_EVAL ( QMMM ) energy [a.u.]:          -1469.875700984467358

 MD_INI| MD initialization
 MD_INI| Potential energy [hartree]                          -0.146987570098E+04
 MD_INI| Total kinetic energy [hartree]                       0.215076797492E+03
 MD_INI| QM kinetic energy [hartree]                          0.369606607592E+00
 MD_INI| Total temperature [K]                                        300.000000
 MD_INI| QM temperature [K]                                           307.542546
 MD_INI| Cell volume [bohr^3]                                 9.853827160554E+06
 MD_INI| Cell volume [ang^3]                                  1.460186515536E+06
 MD_INI| Cell lengths [bohr]      2.39870119E+02  2.39870119E+02  1.71258698E+02
 MD_INI| Cell lengths [ang]       1.26933800E+02  1.26933800E+02  9.06262000E+01
 MD_INI| Cell angles [deg]        9.00000000E+01  9.00000000E+01  9.00000000E+01

  Translating the system in order to center the QM fragment in the QM box.

 Number of electrons:                                                        654
 Number of occupied orbitals:                                                327
 Number of molecular orbitals:                                               327

 Number of orbital functions:                                               2193
 Number of independent orbital functions:                                   2193

 Extrapolation method: ASPC


 SCF WAVEFUNCTION OPTIMIZATION

  ----------------------------------- OT ---------------------------------------
  Minimizer      : DIIS                : direct inversion
                                         in the iterative subspace
                                         using   7 DIIS vectors
                                         safer DIIS on
  Preconditioner : FULL_ALL            : diagonalization, state selective
  Precond_solver : DEFAULT
  stepsize       :    0.15000000                  energy_gap     :    0.08000000
  eps_taylor     :   0.10000E-15                  max_taylor     :             4
  ----------------------------------- OT ---------------------------------------

  Step     Update method      Time    Convergence         Total energy    Change
  ------------------------------------------------------------------------------
  Decoupling Energy:                                               0.0676658532
  Recoupling Energy:                                              -0.0068237527
     1 OT DIIS     0.15E+00    3.7     0.00038779     -1098.3649169404 -1.10E+03
  Decoupling Energy:                                               0.0674445569
  Recoupling Energy:                                              -0.0068207230
     2 OT DIIS     0.15E+00    4.9     0.00028012     -1098.3740152439 -9.10E-03
  Decoupling Energy:                                               0.0676512652
  Recoupling Energy:                                              -0.0068214650
     3 OT DIIS     0.15E+00    4.9     0.00045365     -1098.3736236498  3.92E-04
  Decoupling Energy:                                               0.0674776464
  Recoupling Energy:                                              -0.0068213531
     4 OT DIIS     0.15E+00    4.9     0.00017745     -1098.3760440200 -2.42E-03
  Decoupling Energy:                                               0.0674299754
  Recoupling Energy:                                              -0.0068207525
     5 OT DIIS     0.15E+00    4.9     0.00005926     -1098.3765439025 -5.00E-04
  Decoupling Energy:                                               0.0674468742
  Recoupling Energy:                                              -0.0068203542
     6 OT DIIS     0.15E+00    4.9     0.00004388     -1098.3765866379 -4.27E-05
  Decoupling Energy:                                               0.0674565706
  Recoupling Energy:                                              -0.0068208136
     7 OT DIIS     0.15E+00    5.0     0.00001587     -1098.3766086124 -2.20E-05
  Decoupling Energy:                                               0.0674431897
  Recoupling Energy:                                              -0.0068207177
     8 OT DIIS     0.15E+00    4.9     0.00000828     -1098.3766147351 -6.12E-06
  Decoupling Energy:                                               0.0674418194
  Recoupling Energy:                                              -0.0068205796
     9 OT DIIS     0.15E+00    4.9     0.00000615     -1098.3766170738 -2.34E-06
  Decoupling Energy:                                               0.0674451774
  Recoupling Energy:                                              -0.0068208128
    10 OT DIIS     0.15E+00    4.9     0.00000531     -1098.3766198762 -2.80E-06
  Decoupling Energy:                                               0.0674342587
  Recoupling Energy:                                              -0.0068206129
    11 OT DIIS     0.15E+00    4.9     0.00000394     -1098.3766225785 -2.70E-06
  Decoupling Energy:                                               0.0674351488
  Recoupling Energy:                                              -0.0068206950
    12 OT DIIS     0.15E+00    4.9     0.00000315     -1098.3766249103 -2.33E-06
  Decoupling Energy:                                               0.0674326702
  Recoupling Energy:                                              -0.0068207139
    13 OT DIIS     0.15E+00    4.9     0.00000297     -1098.3766264535 -1.54E-06
  Decoupling Energy:                                               0.0674322211
  Recoupling Energy:                                              -0.0068206876
    14 OT DIIS     0.15E+00    4.9     0.00000295     -1098.3766272701 -8.17E-07
  Decoupling Energy:                                               0.0674315990
  Recoupling Energy:                                              -0.0068207107
    15 OT DIIS     0.15E+00    4.9     0.00000271     -1098.3766281205 -8.50E-07
  Decoupling Energy:                                               0.0674308682
  Recoupling Energy:                                              -0.0068207162
    16 OT DIIS     0.15E+00    4.9     0.00000247     -1098.3766288347 -7.14E-07
  Decoupling Energy:                                               0.0674315678
  Recoupling Energy:                                              -0.0068207194
    17 OT DIIS     0.15E+00    5.0     0.00000220     -1098.3766294317 -5.97E-07
  Decoupling Energy:                                               0.0674323118
  Recoupling Energy:                                              -0.0068207585
    18 OT DIIS     0.15E+00    4.9     0.00000194     -1098.3766303411 -9.09E-07
  Decoupling Energy:                                               0.0674295111
  Recoupling Energy:                                              -0.0068207023
    19 OT DIIS     0.15E+00    4.9     0.00000176     -1098.3766309098 -5.69E-07
  Decoupling Energy:                                               0.0674302148
  Recoupling Energy:                                              -0.0068207360
    20 OT DIIS     0.15E+00    5.0     0.00000156     -1098.3766315912 -6.81E-07
  Decoupling Energy:                                               0.0674298222
  Recoupling Energy:                                              -0.0068207251
    21 OT DIIS     0.15E+00    4.9     0.00000147     -1098.3766321297 -5.38E-07
  Decoupling Energy:                                               0.0674290629
  Recoupling Energy:                                              -0.0068207126
    22 OT DIIS     0.15E+00    4.9     0.00000147     -1098.3766325345 -4.05E-07
  Decoupling Energy:                                               0.0674280755
  Recoupling Energy:                                              -0.0068207015
    23 OT DIIS     0.15E+00    4.9     0.00000146     -1098.3766329198 -3.85E-07
  Decoupling Energy:                                               0.0674276901
  Recoupling Energy:                                              -0.0068206929
    24 OT DIIS     0.15E+00    4.9     0.00000141     -1098.3766332142 -2.94E-07
  Decoupling Energy:                                               0.0674275611
  Recoupling Energy:                                              -0.0068206844
    25 OT DIIS     0.15E+00    5.0     0.00000132     -1098.3766335511 -3.37E-07
  Decoupling Energy:                                               0.0674271096
  Recoupling Energy:                                              -0.0068206806
    26 OT DIIS     0.15E+00    4.9     0.00000121     -1098.3766339172 -3.66E-07
  Decoupling Energy:                                               0.0674256583
  Recoupling Energy:                                              -0.0068206477
    27 OT DIIS     0.15E+00    4.9     0.00000117     -1098.3766341648 -2.48E-07
  Decoupling Energy:                                               0.0674255562
  Recoupling Energy:                                              -0.0068206517
    28 OT DIIS     0.15E+00    4.9     0.00000110     -1098.3766344855 -3.21E-07
  Decoupling Energy:                                               0.0674253778
  Recoupling Energy:                                              -0.0068206417
    29 OT DIIS     0.15E+00    4.9     0.00000107     -1098.3766347713 -2.86E-07
  Decoupling Energy:                                               0.0674249607
  Recoupling Energy:                                              -0.0068206323
    30 OT DIIS     0.15E+00    5.0     0.00000107     -1098.3766350577 -2.86E-07
  Decoupling Energy:                                               0.0674245015
  Recoupling Energy:                                              -0.0068206265
    31 OT DIIS     0.15E+00    4.9     0.00000107     -1098.3766353404 -2.83E-07
  Decoupling Energy:                                               0.0674245039
  Recoupling Energy:                                              -0.0068206233
    32 OT DIIS     0.15E+00    4.9     0.00000106     -1098.3766355442 -2.04E-07
  Decoupling Energy:                                               0.0674247391
  Recoupling Energy:                                              -0.0068206246
    33 OT DIIS     0.15E+00    4.9     0.00000103     -1098.3766358229 -2.79E-07
  Decoupling Energy:                                               0.0674248161
  Recoupling Energy:                                              -0.0068206270
    34 OT DIIS     0.15E+00    4.9     0.00000099     -1098.3766361324 -3.09E-07

  *** SCF run converged in    34 steps ***


  Electronic density on regular grids:       -654.0000005662       -0.0000005662
  Core density on regular grids:              654.9999999988       -0.0000000012
  Total charge density on r-space grids:        0.9999994326
  Total charge density g-space grids:           0.9999994326

  Overlap energy of the core charge distribution:               0.00004332465283
  Self energy of the core charge distribution:              -2459.11679630764229
  Core Hamiltonian energy:                                    750.78608054304277
  Hartree energy:                                            1002.45036695624810
  Exchange-correlation energy:                               -293.96930551309015
  QM/MM Electrostatic energy:                                 -98.52702513563726

  Total energy:                                             -1098.37663613242603
  Decoupling Energy:                                               0.0674242569
  Recoupling Energy:                                              -0.0068206125

 ENERGY| Total FORCE_EVAL ( QMMM ) energy [a.u.]:          -1447.997666804399614

 MD| ***************************************************************************
 MD| Step number                                                               1
 MD| Time [fs]                                                          1.000000
 MD| Conserved quantity [hartree]                            -0.124929046150E+04
 MD| ---------------------------------------------------------------------------
 MD|                                          Instantaneous             Averages
 MD| CPU time per MD step [s]                    378.056765           378.056765
 MD| Energy drift per atom [K]           0.115251040665E+02   0.000000000000E+00
 MD| Potential energy [hartree]         -0.144799766680E+04  -0.144799766680E+04
 MD| Total kinetic energy [hartree]      0.198707205306E+03   0.198707205306E+03
 MD| QM kinetic energy [hartree]         0.373153043355E+00   0.373153043355E+00
 MD| Total temperature [K]                       277.166865           277.166865
 MD| QM temperature [K]                          310.493467           310.493467
 MD| ***************************************************************************

  Translating the system in order to center the QM fragment in the QM box.

 Number of electrons:                                                        654
 Number of occupied orbitals:                                                327
 Number of molecular orbitals:                                               327

 Number of orbital functions:                                               2193
 Number of independent orbital functions:                                   2193

 Extrapolation method: ASPC


 SCF WAVEFUNCTION OPTIMIZATION

  ----------------------------------- OT ---------------------------------------
  Minimizer      : DIIS                : direct inversion
                                         in the iterative subspace
                                         using   7 DIIS vectors
                                         safer DIIS on
  Preconditioner : FULL_ALL            : diagonalization, state selective
  Precond_solver : DEFAULT
  stepsize       :    0.15000000                  energy_gap     :    0.08000000
  eps_taylor     :   0.10000E-15                  max_taylor     :             4
  ----------------------------------- OT ---------------------------------------

  Step     Update method      Time    Convergence         Total energy    Change
  ------------------------------------------------------------------------------
  Decoupling Energy:                                               0.0674205306
  Recoupling Energy:                                              -0.0068198161
     1 OT DIIS     0.15E+00    3.7     0.00014572     -1097.1103364616 -1.10E+03
  Decoupling Energy:                                               0.0673615837
  Recoupling Energy:                                              -0.0068179728
     2 OT DIIS     0.15E+00    4.9     0.00010792     -1097.1115292043 -1.19E-03
  Decoupling Energy:                                               0.0674463180
  Recoupling Energy:                                              -0.0068202486
     3 OT DIIS     0.15E+00    4.9     0.00014381     -1097.1115616227 -3.24E-05
  Decoupling Energy:                                               0.0673951254
  Recoupling Energy:                                              -0.0068187481
     4 OT DIIS     0.15E+00    4.9     0.00007266     -1097.1118081284 -2.47E-04
  Decoupling Energy:                                               0.0673973820
  Recoupling Energy:                                              -0.0068183636
     5 OT DIIS     0.15E+00    4.9     0.00003316     -1097.1118782796 -7.02E-05
  Decoupling Energy:                                               0.0674145655
  Recoupling Energy:                                              -0.0068193536
     6 OT DIIS     0.15E+00    4.9     0.00001297     -1097.1118941875 -1.59E-05
  Decoupling Energy:                                               0.0674003723
  Recoupling Energy:                                              -0.0068187634
     7 OT DIIS     0.15E+00    4.9     0.00000862     -1097.1118968263 -2.64E-06
  Decoupling Energy:                                               0.0674044564
  Recoupling Energy:                                              -0.0068187789
     8 OT DIIS     0.15E+00    4.9     0.00000655     -1097.1118982447 -1.42E-06
  Decoupling Energy:                                               0.0674089830
  Recoupling Energy:                                              -0.0068189439
     9 OT DIIS     0.15E+00    4.9     0.00000355     -1097.1118992681 -1.02E-06
  Decoupling Energy:                                               0.0674130145
  Recoupling Energy:                                              -0.0068189163
    10 OT DIIS     0.15E+00    4.9     0.00000299     -1097.1119006088 -1.34E-06
  Decoupling Energy:                                               0.0674166656
  Recoupling Energy:                                              -0.0068189348
    11 OT DIIS     0.15E+00    4.9     0.00000246     -1097.1119019412 -1.33E-06
  Decoupling Energy:                                               0.0674248279
  Recoupling Energy:                                              -0.0068189928
    12 OT DIIS     0.15E+00    4.9     0.00000218     -1097.1119031465 -1.21E-06
  Decoupling Energy:                                               0.0674287479
  Recoupling Energy:                                              -0.0068190100
    13 OT DIIS     0.15E+00    4.9     0.00000233     -1097.1119038213 -6.75E-07
  Decoupling Energy:                                               0.0674307995
  Recoupling Energy:                                              -0.0068190394
    14 OT DIIS     0.15E+00    4.9     0.00000193     -1097.1119042334 -4.12E-07
  Decoupling Energy:                                               0.0674333105
  Recoupling Energy:                                              -0.0068190179
    15 OT DIIS     0.15E+00    4.9     0.00000187     -1097.1119048097 -5.76E-07
  Decoupling Energy:                                               0.0674369946
  Recoupling Energy:                                              -0.0068190724
    16 OT DIIS     0.15E+00    4.9     0.00000189     -1097.1119052021 -3.92E-07
  Decoupling Energy:                                               0.0674389550
  Recoupling Energy:                                              -0.0068191139
    17 OT DIIS     0.15E+00    4.9     0.00000164     -1097.1119054910 -2.89E-07
  Decoupling Energy:                                               0.0674409891
  Recoupling Energy:                                              -0.0068190925
    18 OT DIIS     0.15E+00    4.9     0.00000138     -1097.1119060287 -5.38E-07
  Decoupling Energy:                                               0.0674426435
  Recoupling Energy:                                              -0.0068191222
    19 OT DIIS     0.15E+00    4.9     0.00000126     -1097.1119063945 -3.66E-07
  Decoupling Energy:                                               0.0674440514
  Recoupling Energy:                                              -0.0068191324
    20 OT DIIS     0.15E+00    4.9     0.00000118     -1097.1119068064 -4.12E-07
  Decoupling Energy:                                               0.0674441706
  Recoupling Energy:                                              -0.0068191309
    21 OT DIIS     0.15E+00    4.9     0.00000121     -1097.1119071188 -3.12E-07
  Decoupling Energy:                                               0.0674437346
  Recoupling Energy:                                              -0.0068191342
    22 OT DIIS     0.15E+00    4.9     0.00000118     -1097.1119073276 -2.09E-07
  Decoupling Energy:                                               0.0674427567
  Recoupling Energy:                                              -0.0068191143
    23 OT DIIS     0.15E+00    4.9     0.00000113     -1097.1119076483 -3.21E-07
  Decoupling Energy:                                               0.0674426496
  Recoupling Energy:                                              -0.0068191253
    24 OT DIIS     0.15E+00    4.9     0.00000115     -1097.1119078741 -2.26E-07
  Decoupling Energy:                                               0.0674417369
  Recoupling Energy:                                              -0.0068191243
    25 OT DIIS     0.15E+00    4.9     0.00000110     -1097.1119080805 -2.06E-07
  Decoupling Energy:                                               0.0674403546
  Recoupling Energy:                                              -0.0068190948
    26 OT DIIS     0.15E+00    4.9     0.00000101     -1097.1119083721 -2.92E-07
  Decoupling Energy:                                               0.0674394408
  Recoupling Energy:                                              -0.0068191001
    27 OT DIIS     0.15E+00    4.9     0.00000111     -1097.1119086428 -2.71E-07
  Decoupling Energy:                                               0.0674391398
  Recoupling Energy:                                              -0.0068190966
    28 OT DIIS     0.15E+00    4.9     0.00000097     -1097.1119086861 -4.33E-08

  *** SCF run converged in    28 steps ***


  Electronic density on regular grids:       -654.0000002644       -0.0000002644
  Core density on regular grids:              654.9999999993       -0.0000000007
  Total charge density on r-space grids:        0.9999997349
  Total charge density g-space grids:           0.9999997349

  Overlap energy of the core charge distribution:               0.00004731787346
  Self energy of the core charge distribution:              -2459.11679630764229
  Core Hamiltonian energy:                                    750.43687560104649
  Hartree energy:                                            1002.71672003178128
  Exchange-correlation energy:                               -293.87542429618185
  QM/MM Electrostatic energy:                                 -97.27333103300828

  Total energy:                                             -1097.11190868613130
  Decoupling Energy:                                               0.0674376804
  Recoupling Energy:                                              -0.0068190815

 ENERGY| Total FORCE_EVAL ( QMMM ) energy [a.u.]:          -1445.975610758268431

 MD| ***************************************************************************
 MD| Step number                                                               2
 MD| Time [fs]                                                          2.000000
 MD| Conserved quantity [hartree]                            -0.125000600922E+04
 MD| ---------------------------------------------------------------------------
 MD|                                          Instantaneous             Averages
 MD| CPU time per MD step [s]                    234.725001           306.390883
 MD| Energy drift per atom [K]           0.100279907309E+02   0.501399536546E+01
 MD| Potential energy [hartree]         -0.144597561076E+04  -0.144698663878E+04
 MD| Total kinetic energy [hartree]      0.195969601537E+03   0.197338403421E+03
 MD| QM kinetic energy [hartree]         0.375001490721E+00   0.374077267038E+00
 MD| Total temperature [K]                       273.348316           275.257590
 MD| QM temperature [K]                          312.031525           311.262496
 MD| ***************************************************************************

  Translating the system in order to center the QM fragment in the QM box.

 Number of electrons:                                                        654
 Number of occupied orbitals:                                                327
 Number of molecular orbitals:                                               327

 Number of orbital functions:                                               2193
 Number of independent orbital functions:                                   2193

 Extrapolation method: ASPC


 SCF WAVEFUNCTION OPTIMIZATION

  ----------------------------------- OT ---------------------------------------
  Minimizer      : DIIS                : direct inversion
                                         in the iterative subspace
                                         using   7 DIIS vectors
                                         safer DIIS on
  Preconditioner : FULL_ALL            : diagonalization, state selective
  Precond_solver : DEFAULT
  stepsize       :    0.15000000                  energy_gap     :    0.08000000
  eps_taylor     :   0.10000E-15                  max_taylor     :             4
  ----------------------------------- OT ---------------------------------------

  Step     Update method      Time    Convergence         Total energy    Change
  ------------------------------------------------------------------------------
  Decoupling Energy:                                               0.0675622523
  Recoupling Energy:                                              -0.0068195802
     1 OT DIIS     0.15E+00    3.7     0.00011093     -1095.1861466882 -1.10E+03
  Decoupling Energy:                                               0.0674785116
  Recoupling Energy:                                              -0.0068159913
     2 OT DIIS     0.15E+00    4.9     0.00009300     -1095.1868084776 -6.62E-04
  Decoupling Energy:                                               0.0675327525
  Recoupling Energy:                                              -0.0068197820
     3 OT DIIS     0.15E+00    5.0     0.00012347     -1095.1868080768  4.01E-07
  Decoupling Energy:                                               0.0675665784
  Recoupling Energy:                                              -0.0068189448
     4 OT DIIS     0.15E+00    4.9     0.00005734     -1095.1869836959 -1.76E-04
  Decoupling Energy:                                               0.0675111073
  Recoupling Energy:                                              -0.0068173095
     5 OT DIIS     0.15E+00    4.9     0.00003137     -1095.1870199489 -3.63E-05
  Decoupling Energy:                                               0.0675177841
  Recoupling Energy:                                              -0.0068179956
     6 OT DIIS     0.15E+00    4.9     0.00000930     -1095.1870339714 -1.40E-05
  Decoupling Energy:                                               0.0675231585
  Recoupling Energy:                                              -0.0068179332
     7 OT DIIS     0.15E+00    4.9     0.00000753     -1095.1870350763 -1.10E-06
  Decoupling Energy:                                               0.0675222720
  Recoupling Energy:                                              -0.0068179002
     8 OT DIIS     0.15E+00    4.9     0.00000372     -1095.1870359890 -9.13E-07
  Decoupling Energy:                                               0.0675212539
  Recoupling Energy:                                              -0.0068179240
     9 OT DIIS     0.15E+00    5.0     0.00000224     -1095.1870364365 -4.48E-07
  Decoupling Energy:                                               0.0675214892
  Recoupling Energy:                                              -0.0068178833
    10 OT DIIS     0.15E+00    5.0     0.00000190     -1095.1870369226 -4.86E-07
  Decoupling Energy:                                               0.0675235299
  Recoupling Energy:                                              -0.0068179099
    11 OT DIIS     0.15E+00    4.9     0.00000164     -1095.1870374839 -5.61E-07
  Decoupling Energy:                                               0.0675238231
  Recoupling Energy:                                              -0.0068178718
    12 OT DIIS     0.15E+00    4.9     0.00000155     -1095.1870379402 -4.56E-07
  Decoupling Energy:                                               0.0675250582
  Recoupling Energy:                                              -0.0068178817
    13 OT DIIS     0.15E+00    4.9     0.00000160     -1095.1870382556 -3.15E-07
  Decoupling Energy:                                               0.0675267553
  Recoupling Energy:                                              -0.0068179017
    14 OT DIIS     0.15E+00    4.9     0.00000132     -1095.1870384552 -2.00E-07
  Decoupling Energy:                                               0.0675276905
  Recoupling Energy:                                              -0.0068178786
    15 OT DIIS     0.15E+00    4.9     0.00000125     -1095.1870386899 -2.35E-07
  Decoupling Energy:                                               0.0675286994
  Recoupling Energy:                                              -0.0068178890
    16 OT DIIS     0.15E+00    4.9     0.00000122     -1095.1870388958 -2.06E-07
  Decoupling Energy:                                               0.0675295299
  Recoupling Energy:                                              -0.0068179008
    17 OT DIIS     0.15E+00    4.9     0.00000108     -1095.1870390404 -1.45E-07
  Decoupling Energy:                                               0.0675308741
  Recoupling Energy:                                              -0.0068178892
    18 OT DIIS     0.15E+00    4.9     0.00000096     -1095.1870392998 -2.59E-07

  *** SCF run converged in    18 steps ***


  Electronic density on regular grids:       -654.0000000154       -0.0000000154
  Core density on regular grids:              654.9999999996       -0.0000000004
  Total charge density on r-space grids:        0.9999999842
  Total charge density g-space grids:           0.9999999842

  Overlap energy of the core charge distribution:               0.00004961119866
  Self energy of the core charge distribution:              -2459.11679630764229
  Core Hamiltonian energy:                                    750.02601503973199
  Hartree energy:                                            1003.02382732579747
  Exchange-correlation energy:                               -293.76774611381359
  QM/MM Electrostatic energy:                                 -95.35238885504299

  Total energy:                                             -1095.18703929977050
  Decoupling Energy:                                               0.0675323059
  Recoupling Energy:                                              -0.0068179041

 ENERGY| Total FORCE_EVAL ( QMMM ) energy [a.u.]:          -1460.415579228019396

 MD| ***************************************************************************
 MD| Step number                                                               3
 MD| Time [fs]                                                          3.000000
 MD| Conserved quantity [hartree]                            -0.125224647449E+04
 MD| ---------------------------------------------------------------------------
 MD|                                          Instantaneous             Averages
 MD| CPU time per MD step [s]                    186.408176           266.396647
 MD| Energy drift per atom [K]           0.534035029639E+01   0.512278034244E+01
 MD| Potential energy [hartree]         -0.146041557923E+04  -0.145146295226E+04
 MD| Total kinetic energy [hartree]      0.208169104734E+03   0.200948637192E+03
 MD| QM kinetic energy [hartree]         0.389730760510E+00   0.379295098195E+00
 MD| Total temperature [K]                       290.364801           280.293327
 MD| QM temperature [K]                          324.287467           315.604153
 MD| ***************************************************************************

  Translating the system in order to center the QM fragment in the QM box.

 Number of electrons:                                                        654
 Number of occupied orbitals:                                                327
 Number of molecular orbitals:                                               327

 Number of orbital functions:                                               2193
 Number of independent orbital functions:                                   2193

 Extrapolation method: ASPC


 SCF WAVEFUNCTION OPTIMIZATION

  ----------------------------------- OT ---------------------------------------
  Minimizer      : DIIS                : direct inversion
                                         in the iterative subspace
                                         using   7 DIIS vectors
                                         safer DIIS on
  Preconditioner : FULL_ALL            : diagonalization, state selective
  Precond_solver : DEFAULT
  stepsize       :    0.15000000                  energy_gap     :    0.08000000
  eps_taylor     :   0.10000E-15                  max_taylor     :             4
  ----------------------------------- OT ---------------------------------------

  Step     Update method      Time    Convergence         Total energy    Change
  ------------------------------------------------------------------------------
  Decoupling Energy:                                               0.0677323929
  Recoupling Energy:                                              -0.0068195660
     1 OT DIIS     0.15E+00    3.7     0.00008441     -1092.7816160472 -1.09E+03
  Decoupling Energy:                                               0.0676099378
  Recoupling Energy:                                              -0.0068140590
     2 OT DIIS     0.15E+00    4.9     0.00010047     -1092.7819061843 -2.90E-04
  Decoupling Energy:                                               0.0676500084
  Recoupling Energy:                                              -0.0068178732
     3 OT DIIS     0.15E+00    4.9     0.00009124     -1092.7819731840 -6.70E-05
  Decoupling Energy:                                               0.0677054402
  Recoupling Energy:                                              -0.0068185885
     4 OT DIIS     0.15E+00    4.9     0.00005139     -1092.7820546990 -8.15E-05
  Decoupling Energy:                                               0.0676497439
  Recoupling Energy:                                              -0.0068162209
     5 OT DIIS     0.15E+00    4.9     0.00002272     -1092.7820881534 -3.35E-05
  Decoupling Energy:                                               0.0676457099
  Recoupling Energy:                                              -0.0068166245
     6 OT DIIS     0.15E+00    4.9     0.00000776     -1092.7820962875 -8.13E-06
  Decoupling Energy:                                               0.0676514920
  Recoupling Energy:                                              -0.0068166770
     7 OT DIIS     0.15E+00    4.9     0.00000578     -1092.7820972227 -9.35E-07
  Decoupling Energy:                                               0.0676485970
  Recoupling Energy:                                              -0.0068166114
     8 OT DIIS     0.15E+00    4.9     0.00000323     -1092.7820978241 -6.01E-07
  Decoupling Energy:                                               0.0676459338
  Recoupling Energy:                                              -0.0068165556
     9 OT DIIS     0.15E+00    4.9     0.00000214     -1092.7820982504 -4.26E-07
  Decoupling Energy:                                               0.0676450006
  Recoupling Energy:                                              -0.0068165078
    10 OT DIIS     0.15E+00    5.0     0.00000195     -1092.7820987635 -5.13E-07
  Decoupling Energy:                                               0.0676425809
  Recoupling Energy:                                              -0.0068164290
    11 OT DIIS     0.15E+00    4.9     0.00000174     -1092.7820994900 -7.27E-07
  Decoupling Energy:                                               0.0676412917
  Recoupling Energy:                                              -0.0068163476
    12 OT DIIS     0.15E+00    4.9     0.00000182     -1092.7821001679 -6.78E-07
  Decoupling Energy:                                               0.0676400659
  Recoupling Energy:                                              -0.0068162940
    13 OT DIIS     0.15E+00    4.9     0.00000171     -1092.7821005770 -4.09E-07
  Decoupling Energy:                                               0.0676404385
  Recoupling Energy:                                              -0.0068162777
    14 OT DIIS     0.15E+00    4.9     0.00000133     -1092.7821010002 -4.23E-07
  Decoupling Energy:                                               0.0676413265
  Recoupling Energy:                                              -0.0068162367
    15 OT DIIS     0.15E+00    4.9     0.00000135     -1092.7821013082 -3.08E-07
  Decoupling Energy:                                               0.0676420427
  Recoupling Energy:                                              -0.0068162325
    16 OT DIIS     0.15E+00    4.9     0.00000130     -1092.7821015829 -2.75E-07
  Decoupling Energy:                                               0.0676427490
  Recoupling Energy:                                              -0.0068162339
    17 OT DIIS     0.15E+00    4.9     0.00000112     -1092.7821017744 -1.92E-07
  Decoupling Energy:                                               0.0676445187
  Recoupling Energy:                                              -0.0068162249
    18 OT DIIS     0.15E+00    4.9     0.00000101     -1092.7821020717 -2.97E-07
  Decoupling Energy:                                               0.0676462894
  Recoupling Energy:                                              -0.0068162329
    19 OT DIIS     0.15E+00    5.0     0.00000095     -1092.7821023300 -2.58E-07

  *** SCF run converged in    19 steps ***


  Electronic density on regular grids:       -653.9999998459        0.0000001541
  Core density on regular grids:              654.9999999994       -0.0000000006
  Total charge density on r-space grids:        1.0000001536
  Total charge density g-space grids:           1.0000001536

  Overlap energy of the core charge distribution:               0.00004753855296
  Self energy of the core charge distribution:              -2459.11679630764229
  Core Hamiltonian energy:                                    749.60409395252941
  Hartree energy:                                            1003.32503220987542
  Exchange-correlation energy:                               -293.66214511362125
  QM/MM Electrostatic energy:                                 -92.93233460973298

  Total energy:                                             -1092.78210233003892
  Decoupling Energy:                                               0.0676480335
  Recoupling Energy:                                              -0.0068162348

 ENERGY| Total FORCE_EVAL ( QMMM ) energy [a.u.]:          -1464.856518404734743

 MD| ***************************************************************************
 MD| Step number                                                               4
 MD| Time [fs]                                                          4.000000
 MD| Conserved quantity [hartree]                            -0.124942851009E+04
 MD| ---------------------------------------------------------------------------
 MD|                                          Instantaneous             Averages
 MD| CPU time per MD step [s]                    191.411853           247.650449
 MD| Energy drift per atom [K]           0.112362702424E+02   0.665115281743E+01
 MD| Potential energy [hartree]         -0.146485651840E+04  -0.145481134380E+04
 MD| Total kinetic energy [hartree]      0.215428008316E+03   0.204568479973E+03
 MD| QM kinetic energy [hartree]         0.424321100153E+00   0.390551598685E+00
 MD| Total temperature [K]                       300.489887           285.342467
 MD| QM temperature [K]                          353.069423           324.970471
 MD| ***************************************************************************

  Translating the system in order to center the QM fragment in the QM box.

 Number of electrons:                                                        654
 Number of occupied orbitals:                                                327
 Number of molecular orbitals:                                               327

 Number of orbital functions:                                               2193
 Number of independent orbital functions:                                   2193

 Extrapolation method: ASPC


 SCF WAVEFUNCTION OPTIMIZATION

  ----------------------------------- OT ---------------------------------------
  Minimizer      : DIIS                : direct inversion
                                         in the iterative subspace
                                         using   7 DIIS vectors
                                         safer DIIS on
  Preconditioner : FULL_ALL            : diagonalization, state selective
  Precond_solver : DEFAULT
  stepsize       :    0.15000000                  energy_gap     :    0.08000000
  eps_taylor     :   0.10000E-15                  max_taylor     :             4
  ----------------------------------- OT ---------------------------------------

  Step     Update method      Time    Convergence         Total energy    Change
  ------------------------------------------------------------------------------
  Decoupling Energy:                                               0.0678208131
  Recoupling Energy:                                              -0.0068165618
     1 OT DIIS     0.15E+00    3.7     0.00006562     -1090.0797269229 -1.09E+03
  Decoupling Energy:                                               0.0677002994
  Recoupling Energy:                                              -0.0068117163
     2 OT DIIS     0.15E+00    4.9     0.00011304     -1090.0798084454 -8.15E-05
  Decoupling Energy:                                               0.0677158892
  Recoupling Energy:                                              -0.0068137633
     3 OT DIIS     0.15E+00    4.9     0.00006263     -1090.0799291290 -1.21E-04
  Decoupling Energy:                                               0.0677801735
  Recoupling Energy:                                              -0.0068154048
     4 OT DIIS     0.15E+00    4.9     0.00003496     -1090.0799691312 -4.00E-05
  Decoupling Energy:                                               0.0677327718
  Recoupling Energy:                                              -0.0068134006
     5 OT DIIS     0.15E+00    5.0     0.00001688     -1090.0799880735 -1.89E-05
  Decoupling Energy:                                               0.0677241747
  Recoupling Energy:                                              -0.0068136571
     6 OT DIIS     0.15E+00    4.9     0.00000664     -1090.0799929418 -4.87E-06
  Decoupling Energy:                                               0.0677294562
  Recoupling Energy:                                              -0.0068136689
     7 OT DIIS     0.15E+00    5.0     0.00000470     -1090.0799937967 -8.55E-07
  Decoupling Energy:                                               0.0677264131
  Recoupling Energy:                                              -0.0068136077
     8 OT DIIS     0.15E+00    4.9     0.00000327     -1090.0799943740 -5.77E-07
  Decoupling Energy:                                               0.0677237141
  Recoupling Energy:                                              -0.0068135726
     9 OT DIIS     0.15E+00    5.0     0.00000237     -1090.0799948523 -4.78E-07
  Decoupling Energy:                                               0.0677209757
  Recoupling Energy:                                              -0.0068134905
    10 OT DIIS     0.15E+00    5.0     0.00000220     -1090.0799955879 -7.36E-07
  Decoupling Energy:                                               0.0677178845
  Recoupling Energy:                                              -0.0068134442
    11 OT DIIS     0.15E+00    4.9     0.00000203     -1090.0799964099 -8.22E-07
  Decoupling Energy:                                               0.0677156590
  Recoupling Energy:                                              -0.0068133761
    12 OT DIIS     0.15E+00    4.9     0.00000210     -1090.0799969997 -5.90E-07
  Decoupling Energy:                                               0.0677133836
  Recoupling Energy:                                              -0.0068133253
    13 OT DIIS     0.15E+00    4.9     0.00000167     -1090.0799974552 -4.56E-07
  Decoupling Energy:                                               0.0677122541
  Recoupling Energy:                                              -0.0068133122
    14 OT DIIS     0.15E+00    4.9     0.00000155     -1090.0799979465 -4.91E-07
  Decoupling Energy:                                               0.0677122591
  Recoupling Energy:                                              -0.0068132795
    15 OT DIIS     0.15E+00    4.9     0.00000160     -1090.0799983542 -4.08E-07
  Decoupling Energy:                                               0.0677114733
  Recoupling Energy:                                              -0.0068132662
    16 OT DIIS     0.15E+00    4.9     0.00000158     -1090.0799987793 -4.25E-07
  Decoupling Energy:                                               0.0677109850
  Recoupling Energy:                                              -0.0068132612
    17 OT DIIS     0.15E+00    5.0     0.00000144     -1090.0799991550 -3.76E-07
  Decoupling Energy:                                               0.0677109781
  Recoupling Energy:                                              -0.0068132359
    18 OT DIIS     0.15E+00    4.9     0.00000133     -1090.0799997663 -6.11E-07
  Decoupling Energy:                                               0.0677116335
  Recoupling Energy:                                              -0.0068132448
    19 OT DIIS     0.15E+00    4.9     0.00000130     -1090.0800003531 -5.87E-07
  Decoupling Energy:                                               0.0677121550
  Recoupling Energy:                                              -0.0068132356
    20 OT DIIS     0.15E+00    4.9     0.00000130     -1090.0800008045 -4.51E-07
  Decoupling Energy:                                               0.0677127369
  Recoupling Energy:                                              -0.0068132367
    21 OT DIIS     0.15E+00    4.9     0.00000121     -1090.0800012837 -4.79E-07
  Decoupling Energy:                                               0.0677144372
  Recoupling Energy:                                              -0.0068132667
    22 OT DIIS     0.15E+00    5.0     0.00000114     -1090.0800018275 -5.44E-07
  Decoupling Energy:                                               0.0677163234
  Recoupling Energy:                                              -0.0068132719
    23 OT DIIS     0.15E+00    4.9     0.00000118     -1090.0800023176 -4.90E-07
  Decoupling Energy:                                               0.0677176642
  Recoupling Energy:                                              -0.0068132997
    24 OT DIIS     0.15E+00    4.9     0.00000116     -1090.0800027128 -3.95E-07
  Decoupling Energy:                                               0.0677195100
  Recoupling Energy:                                              -0.0068133355
    25 OT DIIS     0.15E+00    5.0     0.00000110     -1090.0800031010 -3.88E-07
  Decoupling Energy:                                               0.0677215991
  Recoupling Energy:                                              -0.0068133565
    26 OT DIIS     0.15E+00    4.9     0.00000101     -1090.0800035239 -4.23E-07
  Decoupling Energy:                                               0.0677242408
  Recoupling Energy:                                              -0.0068134069
    27 OT DIIS     0.15E+00    4.9     0.00000100     -1090.0800039631 -4.39E-07

  *** SCF run converged in    27 steps ***


  Electronic density on regular grids:       -653.9999997124        0.0000002876
  Core density on regular grids:              654.9999999998       -0.0000000002
  Total charge density on r-space grids:        1.0000002874
  Total charge density g-space grids:           1.0000002874

  Overlap energy of the core charge distribution:               0.00004453868046
  Self energy of the core charge distribution:              -2459.11679630764229
  Core Hamiltonian energy:                                    749.25824785381042
  Hartree energy:                                            1003.56801629942424
  Exchange-correlation energy:                               -293.58224561585286
  QM/MM Electrostatic energy:                                 -90.20727073150198

  Total energy:                                             -1090.08000396308194
  Decoupling Energy:                                               0.0677258841
  Recoupling Energy:                                              -0.0068134276

 ENERGY| Total FORCE_EVAL ( QMMM ) energy [a.u.]:          -1484.986904249190047

 MD| ***************************************************************************
 MD| Step number                                                               5
 MD| Time [fs]                                                          5.000000
 MD| Conserved quantity [hartree]                            -0.125423515603E+04
 MD| ---------------------------------------------------------------------------
 MD|                                          Instantaneous             Averages
 MD| CPU time per MD step [s]                    231.371056           244.394570
 MD| Energy drift per atom [K]           0.117950740870E+01   0.555682373569E+01
 MD| Potential energy [hartree]         -0.148498690425E+04  -0.146084645589E+04
 MD| Total kinetic energy [hartree]      0.230751748216E+03   0.209805133622E+03
 MD| QM kinetic energy [hartree]         0.464769398458E+00   0.405395158640E+00
 MD| Total temperature [K]                       321.864214           292.646816
 MD| QM temperature [K]                          386.725674           337.321511
 MD| ***************************************************************************

  Translating the system in order to center the QM fragment in the QM box.

 Number of electrons:                                                        654
 Number of occupied orbitals:                                                327
 Number of molecular orbitals:                                               327

 Number of orbital functions:                                               2193
 Number of independent orbital functions:                                   2193

 Extrapolation method: ASPC


 SCF WAVEFUNCTION OPTIMIZATION

  ----------------------------------- OT ---------------------------------------
  Minimizer      : DIIS                : direct inversion
                                         in the iterative subspace
                                         using   7 DIIS vectors
                                         safer DIIS on
  Preconditioner : FULL_ALL            : diagonalization, state selective
  Precond_solver : DEFAULT
  stepsize       :    0.15000000                  energy_gap     :    0.08000000
  eps_taylor     :   0.10000E-15                  max_taylor     :             4
  ----------------------------------- OT ---------------------------------------

  Step     Update method      Time    Convergence         Total energy    Change
  ------------------------------------------------------------------------------
  Decoupling Energy:                                               0.0679524997
  Recoupling Energy:                                              -0.0068149242
     1 OT DIIS     0.15E+00    3.7     0.00006972     -1087.2337804806 -1.09E+03
  Decoupling Energy:                                               0.0676946818
  Recoupling Energy:                                              -0.0068077961
     2 OT DIIS     0.15E+00    4.9     0.00010695     -1087.2338423759 -6.19E-05
  Decoupling Energy:                                               0.0677619410
  Recoupling Energy:                                              -0.0068111847
     3 OT DIIS     0.15E+00    4.9     0.00005547     -1087.2339905688 -1.48E-04
  Decoupling Energy:                                               0.0678058133
  Recoupling Energy:                                              -0.0068115926
     4 OT DIIS     0.15E+00    4.9     0.00004947     -1087.2340077201 -1.72E-05
  Decoupling Energy:                                               0.0677614595
  Recoupling Energy:                                              -0.0068103990
     5 OT DIIS     0.15E+00    4.9     0.00001709     -1087.2340385542 -3.08E-05
  Decoupling Energy:                                               0.0677364383
  Recoupling Energy:                                              -0.0068102885
     6 OT DIIS     0.15E+00    4.9     0.00000739     -1087.2340440529 -5.50E-06
  Decoupling Energy:                                               0.0677343587
  Recoupling Energy:                                              -0.0068100966
     7 OT DIIS     0.15E+00    5.0     0.00000389     -1087.2340454675 -1.41E-06
  Decoupling Energy:                                               0.0677286257
  Recoupling Energy:                                              -0.0068100316
     8 OT DIIS     0.15E+00    4.9     0.00000328     -1087.2340462826 -8.15E-07
  Decoupling Energy:                                               0.0677222877
  Recoupling Energy:                                              -0.0068099274
     9 OT DIIS     0.15E+00    4.9     0.00000303     -1087.2340468443 -5.62E-07
  Decoupling Energy:                                               0.0677164598
  Recoupling Energy:                                              -0.0068097712
    10 OT DIIS     0.15E+00    4.9     0.00000279     -1087.2340475460 -7.02E-07
  Decoupling Energy:                                               0.0677043972
  Recoupling Energy:                                              -0.0068095680
    11 OT DIIS     0.15E+00    4.9     0.00000221     -1087.2340487257 -1.18E-06
  Decoupling Energy:                                               0.0676961850
  Recoupling Energy:                                              -0.0068093886
    12 OT DIIS     0.15E+00    4.9     0.00000210     -1087.2340496369 -9.11E-07
  Decoupling Energy:                                               0.0676902559
  Recoupling Energy:                                              -0.0068092534
    13 OT DIIS     0.15E+00    5.0     0.00000192     -1087.2340501467 -5.10E-07
  Decoupling Energy:                                               0.0676864519
  Recoupling Energy:                                              -0.0068091620
    14 OT DIIS     0.15E+00    4.9     0.00000178     -1087.2340506477 -5.01E-07
  Decoupling Energy:                                               0.0676853473
  Recoupling Energy:                                              -0.0068091204
    15 OT DIIS     0.15E+00    4.9     0.00000161     -1087.2340510047 -3.57E-07
  Decoupling Energy:                                               0.0676828175
  Recoupling Energy:                                              -0.0068090256
    16 OT DIIS     0.15E+00    4.9     0.00000152     -1087.2340516553 -6.51E-07
  Decoupling Energy:                                               0.0676805720
  Recoupling Energy:                                              -0.0068089520
    17 OT DIIS     0.15E+00    4.9     0.00000160     -1087.2340520582 -4.03E-07
  Decoupling Energy:                                               0.0676798267
  Recoupling Energy:                                              -0.0068088908
    18 OT DIIS     0.15E+00    4.9     0.00000148     -1087.2340525061 -4.48E-07
  Decoupling Energy:                                               0.0676789178
  Recoupling Energy:                                              -0.0068088429
    19 OT DIIS     0.15E+00    5.0     0.00000131     -1087.2340530336 -5.27E-07
  Decoupling Energy:                                               0.0676787749
  Recoupling Energy:                                              -0.0068087814
    20 OT DIIS     0.15E+00    4.9     0.00000123     -1087.2340534939 -4.60E-07
  Decoupling Energy:                                               0.0676784952
  Recoupling Energy:                                              -0.0068087302
    21 OT DIIS     0.15E+00    4.9     0.00000125     -1087.2340539692 -4.75E-07
  Decoupling Energy:                                               0.0676790100
  Recoupling Energy:                                              -0.0068087056
    22 OT DIIS     0.15E+00    4.9     0.00000118     -1087.2340543321 -3.63E-07
  Decoupling Energy:                                               0.0676802067
  Recoupling Energy:                                              -0.0068086920
    23 OT DIIS     0.15E+00    4.9     0.00000113     -1087.2340546723 -3.40E-07
  Decoupling Energy:                                               0.0676814565
  Recoupling Energy:                                              -0.0068086616
    24 OT DIIS     0.15E+00    4.9     0.00000105     -1087.2340551271 -4.55E-07
  Decoupling Energy:                                               0.0676823748
  Recoupling Energy:                                              -0.0068086526
    25 OT DIIS     0.15E+00    4.9     0.00000108     -1087.2340554134 -2.86E-07
  Decoupling Energy:                                               0.0676837761
  Recoupling Energy:                                              -0.0068086528
    26 OT DIIS     0.15E+00    5.0     0.00000103     -1087.2340556604 -2.47E-07
  Decoupling Energy:                                               0.0676852006
  Recoupling Energy:                                              -0.0068086612
    27 OT DIIS     0.15E+00    5.0     0.00000097     -1087.2340559485 -2.88E-07

  *** SCF run converged in    27 steps ***


  Electronic density on regular grids:       -653.9999994657        0.0000005343
  Core density on regular grids:              654.9999999992       -0.0000000008
  Total charge density on r-space grids:        1.0000005335
  Total charge density g-space grids:           1.0000005335

  Overlap energy of the core charge distribution:               0.00004427892315
  Self energy of the core charge distribution:              -2459.11679630764229
  Core Hamiltonian energy:                                    749.05689524300215
  Hartree energy:                                            1003.72158398335546
  Exchange-correlation energy:                               -293.54327160960503
  QM/MM Electrostatic energy:                                 -87.35251153649233

  Total energy:                                             -1087.23405594845872
  Decoupling Energy:                                               0.0676866101
  Recoupling Energy:                                              -0.0068086545

 ENERGY| Total FORCE_EVAL ( QMMM ) energy [a.u.]:          -1466.498224915460924

 MD| ***************************************************************************
 MD| Step number                                                               6
 MD| Time [fs]                                                          6.000000
 MD| Conserved quantity [hartree]                            -0.125088336703E+04
 MD| ---------------------------------------------------------------------------
 MD|                                          Instantaneous             Averages
 MD| CPU time per MD step [s]                    231.359390           242.222040
 MD| Energy drift per atom [K]           0.819232830071E+01   0.599607449652E+01
 MD| Potential energy [hartree]         -0.146649822492E+04  -0.146178841739E+04
 MD| Total kinetic energy [hartree]      0.215614857888E+03   0.210773421000E+03
 MD| QM kinetic energy [hartree]         0.488029978297E+00   0.419167628583E+00
 MD| Total temperature [K]                       300.750514           293.997433
 MD| QM temperature [K]                          406.080355           348.781318
 MD| ***************************************************************************

 -------------------------------------------------------------------------------
 -                                                                             -
 -                                DBCSR STATISTICS                             -
 -                                                                             -
 -------------------------------------------------------------------------------
 COUNTER                                    TOTAL       BLAS       SMM       ACC
 flops     5 x     7 x     7               469910       0.0%    100.0%      0.0%
 flops    13 x     7 x     7              1034488       0.0%    100.0%      0.0%
 flops    39 x    32 x    32             71645184       0.0%    100.0%      0.0%
 flops    39 x    32 x    39             87317568       0.0%    100.0%      0.0%
 flops    39 x    39 x    32             87317568       0.0%    100.0%      0.0%
 flops     5 x    32 x    32             98201600       0.0%    100.0%      0.0%
 flops    39 x    39 x    39            106418286       0.0%    100.0%      0.0%
 flops    13 x    32 x    32            216186880       0.0%    100.0%      0.0%
 flops   149 x    32 x    32            238018560       0.0%    100.0%      0.0%
 flops   159 x    32 x    32            253992960       0.0%    100.0%      0.0%
 flops   162 x    32 x    32            258785280       0.0%    100.0%      0.0%
 flops   149 x    32 x    39            290085120       0.0%    100.0%      0.0%
 flops   149 x    39 x    32            290085120       0.0%    100.0%      0.0%
 flops   190 x    32 x    32            303513600       0.0%    100.0%      0.0%
 flops   159 x    32 x    39            309553920       0.0%    100.0%      0.0%
 flops   159 x    39 x    32            309553920       0.0%    100.0%      0.0%
 flops   162 x    32 x    39            315394560       0.0%    100.0%      0.0%
 flops   162 x    39 x    32            315394560       0.0%    100.0%      0.0%
 flops   203 x    32 x    32            324280320       0.0%    100.0%      0.0%
 flops   208 x    32 x    32            332267520       0.0%    100.0%      0.0%
 flops   216 x    32 x    32            345047040       0.0%    100.0%      0.0%
 flops   149 x    39 x    39            353541240       0.0%    100.0%      0.0%
 flops   190 x    32 x    39            369907200       0.0%    100.0%      0.0%
 flops   190 x    39 x    32            369907200       0.0%    100.0%      0.0%
[...]
 flops    32 x    32 x   367          12805281792       0.0%    100.0%      0.0%
 flops   216 x    64 x   362          13051183104       0.0%    100.0%      0.0%
 flops    39 x    64 x   367          13872388608       0.0%    100.0%      0.0%
 flops   172 x    39 x   367          14446053648       0.0%    100.0%      0.0%
 flops    13 x    13 x    39          14980683900       0.0%    100.0%      0.0%
 flops   149 x    64 x    64          15233187840       0.0%    100.0%      0.0%
 flops    32 x    39 x   367          15606437184       0.0%    100.0%      0.0%
 flops   159 x    64 x    64          16255549440       0.0%    100.0%      0.0%
 flops   162 x    64 x    64          16562257920       0.0%    100.0%      0.0%
 flops   149 x    64 x   365          18155018240       0.0%    100.0%      0.0%
 flops   159 x    64 x   365          19373475840       0.0%    100.0%      0.0%
 flops   190 x    64 x    64          19424870400       0.0%    100.0%      0.0%
 flops   162 x    64 x   365          19739013120       0.0%    100.0%      0.0%
 flops     5 x     5 x    64          20569728000       0.0%    100.0%      0.0%
 flops   203 x    64 x    64          20753940480       0.0%    100.0%      0.0%
 flops   208 x    64 x    64          21265121280       0.0%    100.0%      0.0%
 flops   216 x    64 x    64          22083010560       0.0%    100.0%      0.0%
 flops   190 x    64 x   365          23150694400       0.0%    100.0%      0.0%
 flops   195 x    64 x   362          23564636160       0.0%    100.0%      0.0%
 flops   203 x    64 x   365          24734689280       0.0%    100.0%      0.0%
 flops   208 x    64 x   365          25343918080       0.0%    100.0%      0.0%
 flops   216 x    64 x   365          26318684160       0.0%    100.0%      0.0%
 flops   149 x    64 x   367          27381746688       0.0%    100.0%      0.0%
 flops   159 x    64 x   367          29219447808       0.0%    100.0%      0.0%
 flops   162 x    64 x   367          29770758144       0.0%    100.0%      0.0%
 flops   172 x    64 x   362          31177826304       0.0%    100.0%      0.0%
 flops    32 x    64 x   362          33682194432       0.0%    100.0%      0.0%
 flops    32 x    64 x    64          33860616192       0.0%    100.0%      0.0%
 flops   190 x    64 x   367          34916321280       0.0%    100.0%      0.0%
 flops   203 x    64 x   367          37305332736       0.0%    100.0%      0.0%
 flops   208 x    64 x   367          38224183296       0.0%    100.0%      0.0%
 flops   216 x    64 x   367          39694344192       0.0%    100.0%      0.0%
 flops   195 x    64 x    64          39872102400       0.0%    100.0%      0.0%
 flops    13 x     5 x    64          44898713600       0.0%    100.0%      0.0%
 flops     5 x    13 x    64          44923673600       0.0%    100.0%      0.0%
 flops   195 x    64 x   365          47519846400       0.0%    100.0%      0.0%
 flops   172 x    64 x    64          52753858560       0.0%    100.0%      0.0%
 flops   172 x    64 x   365          62872412160       0.0%    100.0%      0.0%
 flops    32 x    64 x   365          67922657280       0.0%    100.0%      0.0%
 flops   195 x    64 x   367          71670343680       0.0%    100.0%      0.0%
 flops   172 x    64 x   367          94825377792       0.0%    100.0%      0.0%
 flops    13 x    13 x    64          98334745600       0.0%    100.0%      0.0%
 flops    32 x    64 x   367         102442254336       0.0%    100.0%      0.0%
 flops     5 x    32 x     5         112614000000       0.0%    100.0%      0.0%
 flops    13 x    32 x     5         247671923200       0.0%    100.0%      0.0%
 flops     5 x    32 x    13         247671923200       0.0%    100.0%      0.0%
 flops    13 x    32 x    13         537582240000       0.0%    100.0%      0.0%
 flops inhomo. stacks                           0       0.0%      0.0%      0.0%
 flops total                         3.187356E+12       0.0%    100.0%      0.0%
 flops max/rank                    106.392934E+09       0.0%    100.0%      0.0%
 matmuls inhomo. stacks                         0       0.0%      0.0%      0.0%
 matmuls total                          296777272       0.0%    100.0%      0.0%
 number of processed stacks               2070648       0.0%    100.0%      0.0%
 average stack size                                     0.0     143.3       0.0
 marketing flops                     3.470523E+12
 -------------------------------------------------------------------------------
 # multiplications                           3193
 max memory usage/rank             990.367744E+06
 # max total images/rank                        1
 # max 3D layers                                1
 # MPI messages exchanged                 1149480
 MPI messages size (bytes):
  total size                       233.957212E+09
  min size                           0.000000E+00
  max size                           1.077512E+06
  average size                     203.533094E+03
 MPI breakdown and total messages size (bytes):
             size <=      128                3570                        0
       128 < size <=     8192               12905                105717760
      8192 < size <=    32768              450625              10906573000
     32768 < size <=   131072              185400              19244890800
    131072 < size <=  4194304              496980             203698891160
   4194304 < size <= 16777216                   0                        0
  16777216 < size                               0                        0
 -------------------------------------------------------------------------------
 -                                                                             -
 -                      DBCSR MESSAGE PASSING PERFORMANCE                      -
 -                                                                             -
 -------------------------------------------------------------------------------
 ROUTINE             CALLS      AVE VOLUME [Bytes]
 MP_Bcast              223                     12.
 MP_Allreduce        17572                      8.
 MP_Alltoall         10606                  27494.
 MP_ISend            76604                  91237.
 MP_IRecv            76604                  89466.
 -------------------------------------------------------------------------------

 -------------------------------------------------------------------------------
 -                                                                             -
 -                                GRID STATISTICS                              -
 -                                                                             -
 -------------------------------------------------------------------------------
 LP    KERNEL             BACKEND                              COUNT     PERCENT
 3     collocate ortho    REF                               51761518      24.29%
 3     integrate ortho    REF                               50985747      23.93%
 2     collocate ortho    REF                               33697864      15.82%
 2     integrate ortho    REF                               32250677      15.14%
 4     integrate ortho    REF                               22327925      10.48%
 4     collocate ortho    REF                               21007110       9.86%
 5     integrate ortho    REF                                 902143       0.42%
 0     collocate general  REF                                  63756       0.03%
 1     integrate general  REF                                  63756       0.03%
 -------------------------------------------------------------------------------

 MEMORY| Estimated peak process memory [MiB]                                1013

 -------------------------------------------------------------------------------
 -                                                                             -
 -                         MESSAGE PASSING PERFORMANCE                         -
 -                                                                             -
 -------------------------------------------------------------------------------

 ROUTINE             CALLS      AVE VOLUME [Bytes]
 MP_Group                8
 MP_Bcast             9369                9661658.
 MP_Allreduce         6692                  23823.
 MP_Sync                12
 MP_Alltoall          3328               24374496.
 MP_SendRecv          3052                  72198.
 MP_ISendRecv        22820                  46656.
 MP_Wait             38095
 MP_ISend            12499                 864798.
 MP_IRecv            12492                 864926.
 MP_Recv               110                 561408.
 -------------------------------------------------------------------------------


 -------------------------------------------------------------------------------
 -                                                                             -
 -                           R E F E R E N C E S                               -
 -                                                                             -
 -------------------------------------------------------------------------------
 
 CP2K version 8.1, the CP2K developers group (2020).
 CP2K is freely available from https://www.cp2k.org/ .

 Kuehne,Thomas D.; Iannuzzi,Marcella; Del Ben,Mauro;
 Rybkin,Vladimir V.; Seewald,Patrick; Stein,Frederick; Laino,Teodoro;
 Khaliullin,Rustam Z.; Schuett,Ole; Schiffmann,Florian; Golze,Dorothea;
 Wilhelm,Jan; Chulkov,Sergey; Bani-Hashemian,Mohammad Hossein;
 Weber,Valery; Borstnik,Urban; Taillefumier,Mathieu;
 Jakobovits,Alice Shoshana; Lazzaro,Alfio; Pabst,Hans; Mueller,Tiziano;
 Schade,Robert; Guidon,Manuel; Andermatt,Samuel; Holmberg,Nico;
 Schenter,Gregory K.; Hehn,Anna; Bussy,Augustin; Belleflamme,Fabian;
 Tabacchi,Gloria; Gloess,Andreas; Lass,Michael; Bethune,Iain;
 Mundy,Christopher J.; Plessl,Christian; Watkins,Matt;
 VandeVondele,Joost; Krack,Matthias; Hutter,Juerg. 
 The Journal of Chemical Physics, 152 (19), (2020). 
 CP2K: An electronic structure and molecular dynamics software package -
 Quickstep: Efficient and accurate electronic structure calculations.
 https://doi.org/10.1063/5.0007045

 Schuett, Ole; Messmer, Peter; Hutter, Juerg; VandeVondele, Joost. 
 Electronic Structure Calculations on Graphics Processing Units, John
 Wiley & Sons, Ltd, 173-190 (2016). 
 GPU-Accelerated Sparse Matrix-Matrix Multiplication for
 Linear Scaling Density Functional Theory.
 https://doi.org/10.1002/9781118670712.ch8

 Borstnik, U; VandeVondele, J; Weber, V; Hutter, J. 
 PARALLEL COMPUTING, 40 (5-6), 47-58 (2014). 
 Sparse matrix multiplication: The distributed block-compressed sparse
 row library.
 https://doi.org/10.1016/j.parco.2014.03.012

 Hutter, J; Iannuzzi, M; Schiffmann, F; VandeVondele, J. 
 WIREs Comput Mol Sci., 4 (1), 15-25 (2014). 
 CP2K: atomistic simulations of condensed matter systems.
 https://doi.org/10.1002/wcms.1159

 Marek, A; Blum, V; Johanni, R; Havu, V; Lang, B; Auckenthaler, T;
 Heinecke, A; Bungartz, H; Lederer, H. 
 Journal of Physics: Condensed Matter, 26 (21), (2014). 
 The ELPA library: scalable parallel eigenvalue solutions for
 electronic structure
 theory and computational science.
 https://doi.org/10.1088/0953-8984/26/21/213201

 VandeVondele, J; Hutter, J. 
 JOURNAL OF CHEMICAL PHYSICS, 127 (11), 114105 (2007). 
 Gaussian basis sets for accurate calculations on molecular systems in
 gas and condensed phases.
 https://doi.org/10.1063/1.2770708

 Kuhne, TD; Krack, M; Mohamed, FR; Parrinello, M. 
 PHYSICAL REVIEW LETTERS, 98 (6), 066401 (2007). 
 Efficient and accurate Car-Parrinello-like approach to
 Born-Oppenheimer molecular dynamics.
 https://doi.org/10.1103/PhysRevLett.98.066401

 Laino, T; Mohamed, F; Laio, A; Parrinello, M. 
 JOURNAL OF CHEMICAL THEORY AND COMPUTATION, 2 (5), 1370-1378 (2006). 
 An efficient linear-scaling electrostatic coupling for treating
 periodic boundary conditions in QM/MM simulations.
 https://doi.org/10.1021/ct6001169

 Laino, T; Mohamed, F; Laio, A; Parrinello, M. 
 JOURNAL OF CHEMICAL THEORY AND COMPUTATION, 1 (6), 1176-1184 (2005). 
 An efficient real space multigrid QM/MM electrostatic coupling.
 https://doi.org/10.1021/ct050123f

 Krack, M. 
 THEORETICAL CHEMISTRY ACCOUNTS, 114 (1-3), 145-152 (2005). 
 Pseudopotentials for H to Kr optimized for gradient-corrected
 exchange-correlation functionals.
 https://doi.org/10.1007/s00214-005-0655-y

 VandeVondele, J; Krack, M; Mohamed, F; Parrinello, M; Chassaing, T;
 Hutter, J. COMPUTER PHYSICS COMMUNICATIONS, 167 (2), 103-128 (2005). 
 QUICKSTEP: Fast and accurate density functional calculations using a
 mixed Gaussian and plane waves approach.
 https://doi.org/10.1016/j.cpc.2004.12.014

 Frigo, M; Johnson, SG. 
 PROCEEDINGS OF THE IEEE, 93 (2), 216-231 (2005). 
 The design and implementation of FFTW3.
 https://doi.org/10.1109/JPROC.2004.840301

 Kolafa, J. 
 JOURNAL OF COMPUTATIONAL CHEMISTRY, 25 (3), 335-342 (2004). 
 Time-reversible always stable predictor-corrector method for molecular dynamics of polarizable molecules.
 https://doi.org/10.1002/jcc.10385

 VandeVondele, J; Hutter, J. 
 JOURNAL OF CHEMICAL PHYSICS, 118 (10), 4365-4369 (2003). 
 An efficient orbital transformation method for electronic structure
 calculations.
 https://doi.org/10.1063/1.1543154

 Hartwigsen, C; Goedecker, S; Hutter, J. 
 PHYSICAL REVIEW B, 58 (7), 3641-3662 (1998). 
 Relativistic separable dual-space Gaussian pseudopotentials from H to Rn.
 https://doi.org/10.1103/PhysRevB.58.3641

 Lippert, G; Hutter, J; Parrinello, M. 
 MOLECULAR PHYSICS, 92 (3), 477-487 (1997). 
 A hybrid Gaussian and plane wave density functional scheme.
 https://doi.org/10.1080/002689797170220

 Goedecker, S; Teter, M; Hutter, J. 
 PHYSICAL REVIEW B, 54 (3), 1703-1710 (1996). 
 Separable dual-space Gaussian pseudopotentials.
 https://doi.org/10.1103/PhysRevB.54.1703

 ESSMANN, U; PERERA, L; BERKOWITZ, ML; DARDEN, T; LEE, H; PEDERSEN, LG. 
 JOURNAL OF CHEMICAL PHYSICS, 103 (19), 8577-8593 (1995). 
 A SMOOTH PARTICLE MESH EWALD METHOD.
 https://doi.org/10.1063/1.470117

 BLOCHL, PE. 
 JOURNAL OF CHEMICAL PHYSICS, 103 (17), 7422-7428 (1995). 
 ELECTROSTATIC DECOUPLING OF PERIODIC IMAGES OF PLANE-WAVE-EXPANDED
 DENSITIES AND DERIVED ATOMIC POINT CHARGES.
 https://doi.org/10.1063/1.470314

 BECKE, AD. PHYSICAL REVIEW A, 38 (6), 3098-3100 (1988). 
 DENSITY-FUNCTIONAL EXCHANGE-ENERGY APPROXIMATION WITH CORRECT
 ASYMPTOTIC-BEHAVIOR.
 https://doi.org/10.1103/PhysRevA.38.3098

 LEE, CT; YANG, WT; PARR, RG. 
 PHYSICAL REVIEW B, 37 (2), 785-789 (1988). 
 DEVELOPMENT OF THE COLLE-SALVETTI CORRELATION-ENERGY FORMULA INTO A
 FUNCTIONAL OF THE ELECTRON-DENSITY.
 https://doi.org/10.1103/PhysRevB.37.785


 -------------------------------------------------------------------------------
 -                                                                             -
 -                                T I M I N G                                  -
 -                                                                             -
 -------------------------------------------------------------------------------
 SUBROUTINE                       CALLS  ASD         SELF TIME        TOTAL TIME
                                MAXIMUM       AVERAGE  MAXIMUM  AVERAGE  MAXIMUM
 CP2K                                 1  1.0    0.242    0.253 1533.072 1533.074
 qs_mol_dyn_low                       1  2.0    0.011    0.012 1454.476 1456.300
 velocity_verlet                      6  3.0    0.046    0.049 1339.812 1339.910
 qs_forces                            7  3.9    0.002    0.002  827.768  827.779
 qs_energies                          7  4.9    0.000    0.001  798.453  798.464
 scf_env_do_scf                       7  5.9    0.000    0.001  775.393  775.394
 scf_env_do_scf_inner_loop          156  7.0    0.005    0.013  750.098  750.163
 rebuild_ks_matrix                  163  8.8    0.001    0.001  429.735  429.819
 qs_ks_build_kohn_sham_matrix       163  9.8    0.023    0.026  429.735  429.819
 qs_ks_update_qs_env                163  8.0    0.001    0.002  405.995  406.076
 qs_rho_update_rho                  163  8.0    0.001    0.001  366.347  366.405
 calculate_rho_elec                 163  9.0    0.527    0.556  366.346  366.404
 grid_collocate_task_list           163 10.0  144.118  327.071  144.118  327.071
 qmmm_forces                          7  3.9    0.041    0.043  326.300  326.303
 qmmm_forces_with_gaussian            7  4.9    0.036    0.042  218.991  325.508
 qmmm_force_with_gaussian_low         7  5.9    0.000    0.000  215.570  322.086
 qmmm_el_coupling                     7  3.9    0.000    0.000  290.347  290.371
 qmmm_elec_with_gaussian              7  4.9    0.017    0.019  290.336  290.362
 qmmm_elec_with_gaussian_low          7  5.9    0.000    0.000  205.366  288.064
 sum_up_and_integrate               163 10.8    0.339    0.352  270.199  270.349
 integrate_v_rspace                 163 11.8    0.005    0.006  269.860  270.010
 density_rs2pw                      163 10.0    0.010    0.012  220.726  269.902
 rs_pw_transfer                    1346 12.3    0.020    0.023  203.512  252.689
 grid_integrate_task_list           163 12.8  104.023  241.687  104.023  241.687
 mp_waitany                       12492 14.1  190.489  240.094  190.489  240.094
 rs_pw_transfer_RS2PW_150           170 11.9    2.031    2.763  186.851  236.040
 qmmm_forces_gaussian_low_R           7  6.9    0.000    0.000  128.387  220.208
 qmmm_forces_with_gaussian_LG         7  7.9  128.387  220.208  128.387  220.208
 mp_alltoall_d11v                  2283 14.0  138.993  175.654  138.993  175.654
 rs_gather_matrices                 163 12.8    0.120    0.150  138.329  175.006
 pw_transfer                       3337 12.5    0.260    0.303  161.521  163.838
 fft_wrap_pw1pw2                   2813 13.6    0.039    0.044  159.151  161.472
 fft_wrap_pw1pw2_150               1807 14.7   10.594   11.095  155.970  158.327
 qmmm_elec_gaussian_low_R             7  6.9    0.000    0.000   86.786  147.579
 qmmm_elec_with_gaussian_LG           7  7.9   86.786  147.579   86.786  147.579
 qmmm_elec_gaussian_low_G             7  6.9  118.580  140.485  118.580  140.485
 fft3d_ps                          2813 15.6   76.693   79.382  128.017  131.161
 qs_vxc_create                      163 10.8    0.003    0.004  123.177  123.191
 xc_vxc_pw_create                   163 11.8    1.561    1.873  123.174  123.187
 mp_sum_dm                          908  5.1  110.394  114.279  110.394  114.279
 qmmm_forces_gaussian_low_G           7  6.9   87.183  101.878   87.183  101.878
 mp_sync                             12  6.7   82.703   92.778   82.703   92.778
 qmmm_env_create                      1  2.0   11.604   12.004   76.485   76.493
 xc_rho_set_and_dset_create         163 12.8    3.641    3.859   62.038   62.792
 fist_init                            1  3.0    0.000    0.000   60.707   60.708
 mp_alltoall_z22v                  2813 17.6   37.738   39.858   37.738   39.858
 force_field_control                  1  4.0    0.000    0.000   37.940   38.117
 rdparm_amber_8                       2  6.5   27.654   30.263   33.896   33.980
 -------------------------------------------------------------------------------

 The number of warnings for this run is : 0
 
 -------------------------------------------------------------------------------
  **** **** ******  **  PROGRAM ENDED AT                 2021-04-09 18:08:29.574
 ***** ** ***  *** **   PROGRAM RAN ON                                   r1i5n18
 **    ****   ******    PROGRAM RAN BY                                    hollyj
 ***** **    ** ** **   PROGRAM PROCESS ID                                 56951
  **** **  *******  **  PROGRAM STOPPED IN /lustre/home/w68/hollyj/CP2K/Cirrus/C
                                           PU/cp2kMD/ClC-253-BLYP/6STEPS/2NODES/
                                           36CPN/2THREADS
