 DBCSR| CPU Multiplication driver                                           XSMM
 DBCSR| Multrec recursion limit                                              512
 DBCSR| Multiplication stack size                                           1000
 DBCSR| Maximum elements for images                                    UNLIMITED
 DBCSR| Multiplicative factor virtual images                                   1
 DBCSR| Use multiplication densification                                       T
 DBCSR| Multiplication size stacks                                             3
 DBCSR| Use memory pool for CPU allocation                                     F
 DBCSR| Number of 3D layers                                               SINGLE
 DBCSR| Use MPI memory allocation                                              F
 DBCSR| Use RMA algorithm                                                      F
 DBCSR| Use Communication thread                                               T
 DBCSR| Communication thread load                                             87
 DBCSR| MPI: My node id                                                        0
 DBCSR| MPI: Number of nodes                                                 144
 DBCSR| OMP: Current number of threads                                         1
 DBCSR| OMP: Max number of threads                                             1
 DBCSR| Split modifier for TAS multiplication algorithm                  1.0E+00


  **** **** ******  **  PROGRAM STARTED AT               2021-04-19 14:29:36.761
 ***** ** ***  *** **   PROGRAM STARTED ON                               r1i1n26
 **    ****   ******    PROGRAM STARTED BY                                hollyj
 ***** **    ** ** **   PROGRAM PROCESS ID                                 55955
  **** **  *******  **  PROGRAM STARTED IN /lustre/home/w68/hollyj/CP2K/Cirrus/C
                                           PU/cp2kMD/CBD_PHY-PBE0/6STEPS/4NODES/
                                           36CPN/1THREADS

 CP2K| version string:                                          CP2K version 8.1
 CP2K| source code revision number:                                  git:0b61f2f
 CP2K| cp2kflags: omp libint fftw3 libxc elpa parallel mpi3 scalapack xsmm spgli
 CP2K|            b mkl
 CP2K| is freely available from                            https://www.cp2k.org/
 CP2K| Program compiled at                           Mon Feb 1 13:14:42 GMT 2021
 CP2K| Program compiled on                                         cirrus-login1
 CP2K| Program compiled for                                           Cirrus-gcc
 CP2K| Data directory path       /lustre/home/w68/hollyj/CP2K/v8.1/cp2k-8.1/data
 CP2K| Input file name                                          CBD_PHY-cp2k.inp

 GLOBAL| Force Environment number                                              1
 GLOBAL| Basis set file name                                           HFX_BASIS
 GLOBAL| Potential file name                                           POTENTIAL
 GLOBAL| MM Potential file name                                     MM_POTENTIAL
 GLOBAL| Coordinate file name                                        CBD_PHY.pdb
 GLOBAL| Method name                                                        CP2K
 GLOBAL| Project name                                               CBD_PHY-PBE0
 GLOBAL| Preferred FFT library                                             FFTW3
 GLOBAL| Preferred diagonalization lib.                                     ELPA
 GLOBAL| Run type                                                             MD
 GLOBAL| All-to-all communication in single precision                          F
 GLOBAL| FFTs using library dependent lengths                                  F
 GLOBAL| Global print level                                                  LOW
 GLOBAL| MPI I/O enabled                                                       T
 GLOBAL| Total number of message passing processes                           144
 GLOBAL| Number of threads for this process                                    1
 GLOBAL| This output is from process                                           0
 GLOBAL| CPU model name                Intel(R) Xeon(R) CPU E5-2695 v4 @ 2.10GHz
 GLOBAL| CPUID                                                              1002
 GLOBAL| Compiled for CPUID                                                 1001

 *** HINT in environment.F:802 :: The compiler target flags (x86_avx) used ***
 *** to build this binary cannot exploit all extensions of this CPU model  ***
 *** (x86_avx2). Consider compiler target flags as part of FCFLAGS and     ***
 *** CFLAGS (ARCH file).                                                   ***


 MEMORY| system memory details [Kb]
 MEMORY|                        rank 0           min           max       average
 MEMORY| MemTotal            263692180     263692092     263692180     263692158
 MEMORY| MemFree             258320008     258320008     258676872     258540586
 MEMORY| Buffers                     0             0             0             0
 MEMORY| Cached                 769924        535520        769924        614776
 MEMORY| Slab                   968936        882880        982192        935592
 MEMORY| SReclaimable           225564        199912        238040        218156
 MEMORY| MemLikelyFree       259315496     259315496     259437480     259373518



                      ************* ******** ***********   
                     ************* **********************  
                     ****     **** ****      ***********   
                     ******** ****  *******     ****       
                     *******  ****   *******   ****        
                     ****     ****       ****  ****        
                     ****     **** **********  ****        
                      ****     **** ********    ****       
                     FRONTIERS IN SIMULATION TECHNOLOGY    
                                                           
                        C.J. Mundy, S. Balasubramanian,    
                     Ken Bagchi, J. Hutter, Ari Seitsonen  
                      IFW Kuo, T. Laino, J. VandeVondele   
                                 Version 1.0               

                                                           


 EWALD| Summation is done by:                                               SPME
 EWALD| Alpha parameter [       ANGSTROM^-1]                              0.4000
 EWALD| Real Space Cutoff [          ANGSTROM]                            8.4348
 EWALD| G-space max. Miller index                         80        80        80
 EWALD| Spline interpolation order                                             6

 FORCEFIELD| WARNING: A non Critical ForceField parameter is missing! CP2K GOES!
 FORCEFIELD| Non critical parameters are:Urey-Bradley,Torsions,Impropers, Opbends and 1-4
 FORCEFIELD| All missing parameters will not contribute to the potential energy!
 FORCEFIELD| Activate the print key FF_INFO to have a list of missing parameters

 CHARGE_INFO| Total Charge of the Classical System:                    -0.825808

 SPLINE_INFO| Generating 101926 splines for NONBONDED14 interactions 
              Due to 451 different atomic kinds
  ...10192  ...20384  ...30576  ...40768  ...50960  ...61152  ...71344  ...81536  ...91728  ...101920
 SPLINE_INFO| Number of unique splines computed:            301
 SPLINE_INFO| Done

 SPLINE_INFO| Generating 101926 splines for NONBONDED interactions 
              Due to 451 different atomic kinds
  ...10192  ...20384  ...30576  ...40768  ...50960  ...61152  ...71344  ...81536  ...91728  ...101920
 SPLINE_INFO| Number of unique splines computed:            301
 SPLINE_INFO| Done

 *******************************************************************************
 *******************************************************************************
 **                                                                           **
 **     #####                         ##              ##                      **
 **    ##   ##            ##          ##              ##                      **
 **   ##     ##                       ##            ######                    **
 **   ##     ##  ##   ##  ##   #####  ##  ##   ####   ##    #####    #####    **
 **   ##     ##  ##   ##  ##  ##      ## ##   ##      ##   ##   ##  ##   ##   **
 **   ##  ## ##  ##   ##  ##  ##      ####     ###    ##   ######   ######    **
 **    ##  ###   ##   ##  ##  ##      ## ##      ##   ##   ##       ##        **
 **     #######   #####   ##   #####  ##  ##  ####    ##    #####   ##        **
 **           ##                                                    ##        **
 **                                                                           **
 **                                                ... make the atoms dance   **
 **                                                                           **
 **            Copyright (C) by CP2K developers group (2000 - 2020)           **
 **                      J. Chem. Phys. 152, 194103 (2020)                    **
 **                                                                           **
 *******************************************************************************


 TOTAL NUMBERS AND MAXIMUM NUMBERS

  Total number of            - Atomic kinds:                                   5
                             - Atoms:                                         68
                             - Shell sets:                                   340
                             - Shells:                                       445
                             - Primitive Cartesian functions:                476
                             - Cartesian basis functions:                   1137
                             - Spherical basis functions:                   1067

  Maximum angular momentum of- Orbital basis functions:                        2
                             - Local part of the GTH pseudopotential:          2
                             - Non-local part of the GTH pseudopotential:      0


 SCF PARAMETERS         Density guess:                                   RESTART
                        --------------------------------------------------------
                        max_scf:                                              30
                        max_scf_history:                                       0
                        max_diis:                                              4
                        --------------------------------------------------------
                        eps_scf:                                        1.00E-06
                        eps_scf_history:                                0.00E+00
                        eps_diis:                                       1.00E-01
                        eps_eigval:                                     1.00E-05
                        --------------------------------------------------------
                        level_shift [a.u.]:                                 0.00
                        --------------------------------------------------------
                        Outer loop SCF in use 
                        No variables optimised in outer loop
                        eps_scf                                         1.00E-06
                        max_scf                                               20
                        No outer loop optimization
                        step_size                                       5.00E-01

 *******************************************************************************
 *******************************************************************************
 **                                                                           **
 **             #######  ##     ## ##     ## ##     ##                        **
 **            ##     ## ###   ### ###   ### ###   ###                        **
 **            ##     ## #### #### #### #### #### ####                        **
 **            ##     ## ## ### ## ## ### ## ## ### ##                        **
 **            ##  ## ## ##     ## ##     ## ##     ##                        **
 **            ##    ##  ##     ## ##     ## ##     ##  T.Laino and F.Mohamed **
 **             ##### ## ##     ## ##     ## ##     ##  2005 - 2015           **
 **                                                                           **
 **                                                     Calculation Started.. **
 *******************************************************************************
 *******************************************************************************

 MD_PAR| Molecular dynamics protocol (MD input parameters)
 MD_PAR| Ensemble type                                                       NVE
 MD_PAR| Number of time steps                                                  6
 MD_PAR| Time step [fs]                                                 1.000000
 MD_PAR| Temperature [K]                                              300.000000
 MD_PAR| Temperature tolerance [K]                                      0.000000
 MD_PAR| Print MD information every                                    1 step(s)
 MD_PAR| File type   Print frequency [steps]                          File names
 MD_PAR| Coordinates          1                           CBD_PHY-PBE0-pos-1.xyz
 MD_PAR| Velocities           1                           CBD_PHY-PBE0-vel-1.xyz
 MD_PAR| Energies             1                              CBD_PHY-PBE0-1.ener
 MD_PAR| Dump                20                           CBD_PHY-PBE0-1.restart

 ROT| Rotational analysis information
 ROT| Principal axes and moments of inertia [a.u.]
 ROT|                           1                   2                   3
 ROT| Eigenvalues      1.56283164001E+13   1.56407408488E+13   1.56663418804E+13
 ROT|      x              0.901637047331     -0.018153263569      0.432112362589
 ROT|      y              0.323714777231      0.690893927917     -0.646431994389
 ROT|      z             -0.286808957117      0.722728191915      0.628812040859
 ROT| Number of rotovibrational vectors                                        6

 DOF| Calculation of degrees of freedom
 DOF| Number of atoms                                                     167923
 DOF| Number of intramolecular constraints                                     0
 DOF| Number of intermolecular constraints                                     0
 DOF| Invariants (translations + rotations)                                    3
 DOF| Degrees of freedom                                                  503766

 DOF| Restraints information
 DOF| Number of intramolecular restraints                                      0
 DOF| Number of intermolecular restraints                                      0

 MD_VEL| Velocities initialization
 MD_VEL| Initial temperature [K]                                      300.000000
 MD_VEL| COM velocity            -0.0000000000     0.0000000000     0.0000000000

  Translating the system in order to center the QM fragment in the QM box.

 Number of electrons:                                                        180
 Number of occupied orbitals:                                                 90
 Number of molecular orbitals:                                                90

 Number of orbital functions:                                               1067
 Number of independent orbital functions:                                   1067

 Extrapolation method: initial_guess


 SCF WAVEFUNCTION OPTIMIZATION

  ----------------------------------- OT ---------------------------------------
  Minimizer      : DIIS                : direct inversion
                                         in the iterative subspace
                                         using   7 DIIS vectors
                                         safer DIIS on
  Preconditioner : FULL_ALL            : diagonalization, state selective
  Precond_solver : DEFAULT
  stepsize       :    0.15000000                  energy_gap     :    0.08000000
  eps_taylor     :   0.10000E-15                  max_taylor     :             4
  ----------------------------------- OT ---------------------------------------

  Step     Update method      Time    Convergence         Total energy    Change
  ------------------------------------------------------------------------------
  Decoupling Energy:                                               0.0370647021
  Recoupling Energy:                                              -0.0063741479
     1 OT DIIS     0.15E+00   14.3     0.00129057      -255.9257316527 -2.56E+02
  Decoupling Energy:                                               0.0370576004
  Recoupling Energy:                                              -0.0063740314
     2 OT DIIS     0.15E+00    2.7     0.00057761      -255.9419521970 -1.62E-02
  Decoupling Energy:                                               0.0369596417
  Recoupling Energy:                                              -0.0063730135
     3 OT DIIS     0.15E+00    2.7     0.00038348      -255.9451217312 -3.17E-03
  Decoupling Energy:                                               0.0369795469
  Recoupling Energy:                                              -0.0063732416
     4 OT DIIS     0.15E+00    2.7     0.00009866      -255.9458275763 -7.06E-04
  Decoupling Energy:                                               0.0369716948
  Recoupling Energy:                                              -0.0063731487
     5 OT DIIS     0.15E+00    2.7     0.00003992      -255.9458779681 -5.04E-05
  Decoupling Energy:                                               0.0369737640
  Recoupling Energy:                                              -0.0063731649
     6 OT DIIS     0.15E+00    2.7     0.00001793      -255.9458894165 -1.14E-05
  Decoupling Energy:                                               0.0369741808
  Recoupling Energy:                                              -0.0063731680
     7 OT DIIS     0.15E+00    2.7     0.00000621      -255.9458922933 -2.88E-06
  Decoupling Energy:                                               0.0369727126
  Recoupling Energy:                                              -0.0063731518
     8 OT DIIS     0.15E+00    2.7     0.00000242      -255.9458926323 -3.39E-07
  Decoupling Energy:                                               0.0369731060
  Recoupling Energy:                                              -0.0063731556
     9 OT DIIS     0.15E+00    2.7     0.00000111      -255.9458926817 -4.94E-08
  Decoupling Energy:                                               0.0369728227
  Recoupling Energy:                                              -0.0063731526
    10 OT DIIS     0.15E+00    2.7     0.00000048      -255.9458926919 -1.02E-08

  *** SCF run converged in    10 steps ***


  Electronic density on regular grids:       -179.9999999999        0.0000000001
  Core density on regular grids:              180.9999999999       -0.0000000001
  Total charge density on r-space grids:        1.0000000000
  Total charge density g-space grids:           1.0000000000

  Overlap energy of the core charge distribution:               0.00001951532734
  Self energy of the core charge distribution:               -615.71576003586028
  Core Hamiltonian energy:                                    191.01363234739736
  Hartree energy:                                             248.20663852139097
  Exchange-correlation energy:                                -61.38430758347328
  Hartree-Fock Exchange energy:                               -18.10821017492066
  QM/MM Electrostatic energy:                                   0.04209471826931

  Total energy:                                              -255.94589269186923

  outer SCF iter =    1 RMS gradient =   0.48E-06 energy =       -255.9458926919
  outer SCF loop converged in   1 iterations or   10 steps

  Decoupling Energy:                                               0.0369728027
  Recoupling Energy:                                              -0.0063731523

 ENERGY| Total FORCE_EVAL ( QMMM ) energy [a.u.]:          -1088.110859623943725

 MD_INI| MD initialization
 MD_INI| Potential energy [hartree]                          -0.108811085962E+04
 MD_INI| Total kinetic energy [hartree]                       0.239300084734E+03
 MD_INI| QM kinetic energy [hartree]                          0.106639360339E+00
 MD_INI| Total temperature [K]                                        300.000000
 MD_INI| QM temperature [K]                                           330.137318
 MD_INI| Cell volume [bohr^3]                                 1.137316355424E+07
 MD_INI| Cell volume [ang^3]                                  1.685328937712E+06
 MD_INI| Cell lengths [bohr]      2.24884969E+02  2.24884969E+02  2.24884969E+02
 MD_INI| Cell lengths [ang]       1.19004000E+02  1.19004000E+02  1.19004000E+02
 MD_INI| Cell angles [deg]        9.00000000E+01  9.00000000E+01  9.00000000E+01

  Translating the system in order to center the QM fragment in the QM box.

 Number of electrons:                                                        180
 Number of occupied orbitals:                                                 90
 Number of molecular orbitals:                                                90

 Number of orbital functions:                                               1067
 Number of independent orbital functions:                                   1067

 Extrapolation method: ASPC


 SCF WAVEFUNCTION OPTIMIZATION

  ----------------------------------- OT ---------------------------------------
  Minimizer      : DIIS                : direct inversion
                                         in the iterative subspace
                                         using   7 DIIS vectors
                                         safer DIIS on
  Preconditioner : FULL_ALL            : diagonalization, state selective
  Precond_solver : DEFAULT
  stepsize       :    0.15000000                  energy_gap     :    0.08000000
  eps_taylor     :   0.10000E-15                  max_taylor     :             4
  ----------------------------------- OT ---------------------------------------

  Step     Update method      Time    Convergence         Total energy    Change
  ------------------------------------------------------------------------------
  Decoupling Energy:                                               0.0370014666
  Recoupling Energy:                                              -0.0063734172
     1 OT DIIS     0.15E+00   10.5     0.00075899      -255.7182133348 -2.56E+02
  Decoupling Energy:                                               0.0370082380
  Recoupling Energy:                                              -0.0063735355
     2 OT DIIS     0.15E+00    2.6     0.00032685      -255.7237311665 -5.52E-03
  Decoupling Energy:                                               0.0370087414
  Recoupling Energy:                                              -0.0063735590
     3 OT DIIS     0.15E+00    2.6     0.00019068      -255.7247684893 -1.04E-03
  Decoupling Energy:                                               0.0370199883
  Recoupling Energy:                                              -0.0063736817
     4 OT DIIS     0.15E+00    2.6     0.00006054      -255.7249609223 -1.92E-04
  Decoupling Energy:                                               0.0370216763
  Recoupling Energy:                                              -0.0063737045
     5 OT DIIS     0.15E+00    2.6     0.00001954      -255.7249774870 -1.66E-05
  Decoupling Energy:                                               0.0370210006
  Recoupling Energy:                                              -0.0063736984
     6 OT DIIS     0.15E+00    2.6     0.00000817      -255.7249797453 -2.26E-06
  Decoupling Energy:                                               0.0370221930
  Recoupling Energy:                                              -0.0063737124
     7 OT DIIS     0.15E+00    2.6     0.00000308      -255.7249802074 -4.62E-07
  Decoupling Energy:                                               0.0370222383
  Recoupling Energy:                                              -0.0063737132
     8 OT DIIS     0.15E+00    2.6     0.00000136      -255.7249802846 -7.72E-08
  Decoupling Energy:                                               0.0370224660
  Recoupling Energy:                                              -0.0063737159
     9 OT DIIS     0.15E+00    2.6     0.00000058      -255.7249803003 -1.57E-08

  *** SCF run converged in     9 steps ***


  Electronic density on regular grids:       -180.0000000000        0.0000000000
  Core density on regular grids:              180.9999999999       -0.0000000001
  Total charge density on r-space grids:        0.9999999999
  Total charge density g-space grids:           0.9999999999

  Overlap energy of the core charge distribution:               0.00002422740857
  Self energy of the core charge distribution:               -615.71576003586028
  Core Hamiltonian energy:                                    191.21094924030896
  Hartree energy:                                             248.07774925451085
  Exchange-correlation energy:                                -61.42683515406659
  Hartree-Fock Exchange energy:                               -18.12283151860624
  QM/MM Electrostatic energy:                                   0.25172368597376

  Total energy:                                              -255.72498030033100

  outer SCF iter =    1 RMS gradient =   0.58E-06 energy =       -255.7249803003
  outer SCF loop converged in   1 iterations or    9 steps

  Decoupling Energy:                                               0.0370224945
  Recoupling Energy:                                              -0.0063737164

 ENERGY| Total FORCE_EVAL ( QMMM ) energy [a.u.]:          -1059.962356475458137

 MD| ***************************************************************************
 MD| Step number                                                               1
 MD| Time [fs]                                                          1.000000
 MD| Conserved quantity [hartree]                            -0.841461427257E+03
 MD| ---------------------------------------------------------------------------
 MD|                                          Instantaneous             Averages
 MD| CPU time per MD step [s]                    226.825284           226.825284
 MD| Energy drift per atom [K]           0.138202489303E+02   0.000000000000E+00
 MD| Potential energy [hartree]         -0.105996235648E+04  -0.105996235648E+04
 MD| Total kinetic energy [hartree]      0.218500929218E+03   0.218500929218E+03
 MD| QM kinetic energy [hartree]         0.121347092823E+00   0.121347092823E+00
 MD| Total temperature [K]                       273.925013           273.925013
 MD| QM temperature [K]                          375.669956           375.669956
 MD| ***************************************************************************

  Translating the system in order to center the QM fragment in the QM box.

 Number of electrons:                                                        180
 Number of occupied orbitals:                                                 90
 Number of molecular orbitals:                                                90

 Number of orbital functions:                                               1067
 Number of independent orbital functions:                                   1067

 Extrapolation method: ASPC


 SCF WAVEFUNCTION OPTIMIZATION

  ----------------------------------- OT ---------------------------------------
  Minimizer      : DIIS                : direct inversion
                                         in the iterative subspace
                                         using   7 DIIS vectors
                                         safer DIIS on
  Preconditioner : FULL_ALL            : diagonalization, state selective
  Precond_solver : DEFAULT
  stepsize       :    0.15000000                  energy_gap     :    0.08000000
  eps_taylor     :   0.10000E-15                  max_taylor     :             4
  ----------------------------------- OT ---------------------------------------

  Step     Update method      Time    Convergence         Total energy    Change
  ------------------------------------------------------------------------------
  Decoupling Energy:                                               0.0370781957
  Recoupling Energy:                                              -0.0063743358
     1 OT DIIS     0.15E+00   10.8     0.00029264      -255.3622516425 -2.55E+02
  Decoupling Energy:                                               0.0370714493
  Recoupling Energy:                                              -0.0063742686
     2 OT DIIS     0.15E+00    2.7     0.00012382      -255.3630879556 -8.36E-04
  Decoupling Energy:                                               0.0370747105
  Recoupling Energy:                                              -0.0063743002
     3 OT DIIS     0.15E+00    2.6     0.00005669      -255.3632554220 -1.67E-04
  Decoupling Energy:                                               0.0370720735
  Recoupling Energy:                                              -0.0063742776
     4 OT DIIS     0.15E+00    2.7     0.00001749      -255.3632741855 -1.88E-05
  Decoupling Energy:                                               0.0370725477
  Recoupling Energy:                                              -0.0063742816
     5 OT DIIS     0.15E+00    2.7     0.00000679      -255.3632757049 -1.52E-06
  Decoupling Energy:                                               0.0370729623
  Recoupling Energy:                                              -0.0063742866
     6 OT DIIS     0.15E+00    2.6     0.00000313      -255.3632759610 -2.56E-07
  Decoupling Energy:                                               0.0370729474
  Recoupling Energy:                                              -0.0063742865
     7 OT DIIS     0.15E+00    2.6     0.00000106      -255.3632760217 -6.08E-08
  Decoupling Energy:                                               0.0370730050
  Recoupling Energy:                                              -0.0063742872
     8 OT DIIS     0.15E+00    2.6     0.00000048      -255.3632760319 -1.02E-08

  *** SCF run converged in     8 steps ***


  Electronic density on regular grids:       -180.0000000000       -0.0000000000
  Core density on regular grids:              180.9999999999       -0.0000000001
  Total charge density on r-space grids:        0.9999999998
  Total charge density g-space grids:           0.9999999998

  Overlap energy of the core charge distribution:               0.00005088935555
  Self energy of the core charge distribution:               -615.71576003586028
  Core Hamiltonian energy:                                    191.44417772173955
  Hartree energy:                                             247.94137368796217
  Exchange-correlation energy:                                -61.47332339653836
  Hartree-Fock Exchange energy:                               -18.13880622318016
  QM/MM Electrostatic energy:                                   0.57901132462493

  Total energy:                                              -255.36327603189662

  outer SCF iter =    1 RMS gradient =   0.48E-06 energy =       -255.3632760319
  outer SCF loop converged in   1 iterations or    8 steps

  Decoupling Energy:                                               0.0370730220
  Recoupling Energy:                                              -0.0063742875

 ENERGY| Total FORCE_EVAL ( QMMM ) energy [a.u.]:          -1061.235329387133561

 MD| ***************************************************************************
 MD| Step number                                                               2
 MD| Time [fs]                                                          2.000000
 MD| Conserved quantity [hartree]                            -0.842817775246E+03
 MD| ---------------------------------------------------------------------------
 MD|                                          Instantaneous             Averages
 MD| CPU time per MD step [s]                    104.866613           165.845949
 MD| Energy drift per atom [K]           0.112696733173E+02   0.563483665864E+01
 MD| Potential energy [hartree]         -0.106123532939E+04  -0.106059884293E+04
 MD| Total kinetic energy [hartree]      0.218417554141E+03   0.218459241680E+03
 MD| QM kinetic energy [hartree]         0.111577613848E+00   0.116462353335E+00
 MD| Total temperature [K]                       273.820489           273.872751
 MD| QM temperature [K]                          345.425311           360.547634
 MD| ***************************************************************************

  Translating the system in order to center the QM fragment in the QM box.

 Number of electrons:                                                        180
 Number of occupied orbitals:                                                 90
 Number of molecular orbitals:                                                90

 Number of orbital functions:                                               1067
 Number of independent orbital functions:                                   1067

 Extrapolation method: ASPC


 SCF WAVEFUNCTION OPTIMIZATION

  ----------------------------------- OT ---------------------------------------
  Minimizer      : DIIS                : direct inversion
                                         in the iterative subspace
                                         using   7 DIIS vectors
                                         safer DIIS on
  Preconditioner : FULL_ALL            : diagonalization, state selective
  Precond_solver : DEFAULT
  stepsize       :    0.15000000                  energy_gap     :    0.08000000
  eps_taylor     :   0.10000E-15                  max_taylor     :             4
  ----------------------------------- OT ---------------------------------------

  Step     Update method      Time    Convergence         Total energy    Change
  ------------------------------------------------------------------------------
  Decoupling Energy:                                               0.0371231391
  Recoupling Energy:                                              -0.0063748341
     1 OT DIIS     0.15E+00   10.5     0.00057304      -254.8840281344 -2.55E+02
  Decoupling Energy:                                               0.0371263443
  Recoupling Energy:                                              -0.0063748783
     2 OT DIIS     0.15E+00    2.6     0.00022562      -254.8871530742 -3.12E-03
  Decoupling Energy:                                               0.0371271609
  Recoupling Energy:                                              -0.0063748854
     3 OT DIIS     0.15E+00    2.6     0.00008218      -254.8877082749 -5.55E-04
  Decoupling Energy:                                               0.0371222859
  Recoupling Energy:                                              -0.0063748368
     4 OT DIIS     0.15E+00    2.6     0.00002739      -254.8877584581 -5.02E-05
  Decoupling Energy:                                               0.0371233437
  Recoupling Energy:                                              -0.0063748481
     5 OT DIIS     0.15E+00    2.6     0.00001031      -254.8877622402 -3.78E-06
  Decoupling Energy:                                               0.0371231596
  Recoupling Energy:                                              -0.0063748450
     6 OT DIIS     0.15E+00    2.6     0.00000437      -254.8877628220 -5.82E-07
  Decoupling Energy:                                               0.0371230853
  Recoupling Energy:                                              -0.0063748447
     7 OT DIIS     0.15E+00    2.7     0.00000136      -254.8877629110 -8.91E-08
  Decoupling Energy:                                               0.0371230896
  Recoupling Energy:                                              -0.0063748447
     8 OT DIIS     0.15E+00    2.6     0.00000059      -254.8877629218 -1.08E-08

  *** SCF run converged in     8 steps ***


  Electronic density on regular grids:       -180.0000000003       -0.0000000003
  Core density on regular grids:              180.9999999999       -0.0000000001
  Total charge density on r-space grids:        0.9999999996
  Total charge density g-space grids:           0.9999999996

  Overlap energy of the core charge distribution:               0.00005124465939
  Self energy of the core charge distribution:               -615.71576003586028
  Core Hamiltonian energy:                                    191.49122878611979
  Hartree energy:                                             247.90730180929873
  Exchange-correlation energy:                                -61.48094098898524
  Hartree-Fock Exchange energy:                               -18.14139996959545
  QM/MM Electrostatic energy:                                   1.05175623256984

  Total energy:                                              -254.88776292179321

  outer SCF iter =    1 RMS gradient =   0.59E-06 energy =       -254.8877629218
  outer SCF loop converged in   1 iterations or    8 steps

  Decoupling Energy:                                               0.0371230880
  Recoupling Energy:                                              -0.0063748447

 ENERGY| Total FORCE_EVAL ( QMMM ) energy [a.u.]:          -1082.045341235117576

 MD| ***************************************************************************
 MD| Step number                                                               3
 MD| Time [fs]                                                          3.000000
 MD| Conserved quantity [hartree]                            -0.846392351341E+03
 MD| ---------------------------------------------------------------------------
 MD|                                          Instantaneous             Averages
 MD| CPU time per MD step [s]                    104.357559           145.349819
 MD| Energy drift per atom [K]           0.454777990303E+01   0.527248440677E+01
 MD| Potential energy [hartree]         -0.108204534124E+04  -0.106774767570E+04
 MD| Total kinetic energy [hartree]      0.235652989894E+03   0.224190491085E+03
 MD| QM kinetic energy [hartree]         0.117355682018E+00   0.116760129563E+00
 MD| Total temperature [K]                       295.427797           281.057766
 MD| QM temperature [K]                          363.313227           361.469498
 MD| ***************************************************************************

  Translating the system in order to center the QM fragment in the QM box.

 Number of electrons:                                                        180
 Number of occupied orbitals:                                                 90
 Number of molecular orbitals:                                                90

 Number of orbital functions:                                               1067
 Number of independent orbital functions:                                   1067

 Extrapolation method: ASPC


 SCF WAVEFUNCTION OPTIMIZATION

  ----------------------------------- OT ---------------------------------------
  Minimizer      : DIIS                : direct inversion
                                         in the iterative subspace
                                         using   7 DIIS vectors
                                         safer DIIS on
  Preconditioner : FULL_ALL            : diagonalization, state selective
  Precond_solver : DEFAULT
  stepsize       :    0.15000000                  energy_gap     :    0.08000000
  eps_taylor     :   0.10000E-15                  max_taylor     :             4
  ----------------------------------- OT ---------------------------------------

  Step     Update method      Time    Convergence         Total energy    Change
  ------------------------------------------------------------------------------
  Decoupling Energy:                                               0.0371654067
  Recoupling Energy:                                              -0.0063753273
     1 OT DIIS     0.15E+00   10.5     0.00026696      -254.3373001362 -2.54E+02
  Decoupling Energy:                                               0.0371743670
  Recoupling Energy:                                              -0.0063754112
     2 OT DIIS     0.15E+00    2.6     0.00010711      -254.3379925555 -6.92E-04
  Decoupling Energy:                                               0.0371689303
  Recoupling Energy:                                              -0.0063753549
     3 OT DIIS     0.15E+00    2.6     0.00004030      -254.3381210697 -1.29E-04
  Decoupling Energy:                                               0.0371715579
  Recoupling Energy:                                              -0.0063753822
     4 OT DIIS     0.15E+00    2.7     0.00001280      -254.3381310395 -9.97E-06
  Decoupling Energy:                                               0.0371702469
  Recoupling Energy:                                              -0.0063753692
     5 OT DIIS     0.15E+00    2.7     0.00000540      -254.3381318903 -8.51E-07
  Decoupling Energy:                                               0.0371705262
  Recoupling Energy:                                              -0.0063753714
     6 OT DIIS     0.15E+00    2.7     0.00000189      -254.3381320291 -1.39E-07
  Decoupling Energy:                                               0.0371705499
  Recoupling Energy:                                              -0.0063753719
     7 OT DIIS     0.15E+00    2.7     0.00000065      -254.3381320478 -1.87E-08

  *** SCF run converged in     7 steps ***


  Electronic density on regular grids:       -179.9999999999        0.0000000001
  Core density on regular grids:              180.9999999999       -0.0000000001
  Total charge density on r-space grids:        1.0000000000
  Total charge density g-space grids:           1.0000000000

  Overlap energy of the core charge distribution:               0.00002358450655
  Self energy of the core charge distribution:               -615.71576003586028
  Core Hamiltonian energy:                                    191.34730913169406
  Hartree energy:                                             247.97610631948345
  Exchange-correlation energy:                                -61.44936463318295
  Hartree-Fock Exchange energy:                               -18.13041688989011
  QM/MM Electrostatic energy:                                   1.63397047547717

  Total energy:                                              -254.33813204777218

  outer SCF iter =    1 RMS gradient =   0.65E-06 energy =       -254.3381320478
  outer SCF loop converged in   1 iterations or    7 steps

  Decoupling Energy:                                               0.0371704731
  Recoupling Energy:                                              -0.0063753710

 ENERGY| Total FORCE_EVAL ( QMMM ) energy [a.u.]:          -1079.714053669511031

 MD| ***************************************************************************
 MD| Step number                                                               4
 MD| Time [fs]                                                          4.000000
 MD| Conserved quantity [hartree]                            -0.842113597655E+03
 MD| ---------------------------------------------------------------------------
 MD|                                          Instantaneous             Averages
 MD| CPU time per MD step [s]                    101.561812           134.402817
 MD| Energy drift per atom [K]           0.125938601820E+02   0.710282835059E+01
 MD| Potential energy [hartree]         -0.107971405367E+04  -0.107073927019E+04
 MD| Total kinetic energy [hartree]      0.237600456015E+03   0.227542982317E+03
 MD| QM kinetic energy [hartree]         0.148327906074E+00   0.124652073691E+00
 MD| Total temperature [K]                       297.869250           285.260637
 MD| QM temperature [K]                          459.197964           385.901615
 MD| ***************************************************************************

  Translating the system in order to center the QM fragment in the QM box.

 Number of electrons:                                                        180
 Number of occupied orbitals:                                                 90
 Number of molecular orbitals:                                                90

 Number of orbital functions:                                               1067
 Number of independent orbital functions:                                   1067

 Extrapolation method: ASPC


 SCF WAVEFUNCTION OPTIMIZATION

  ----------------------------------- OT ---------------------------------------
  Minimizer      : DIIS                : direct inversion
                                         in the iterative subspace
                                         using   7 DIIS vectors
                                         safer DIIS on
  Preconditioner : FULL_ALL            : diagonalization, state selective
  Precond_solver : DEFAULT
  stepsize       :    0.15000000                  energy_gap     :    0.08000000
  eps_taylor     :   0.10000E-15                  max_taylor     :             4
  ----------------------------------- OT ---------------------------------------

  Step     Update method      Time    Convergence         Total energy    Change
  ------------------------------------------------------------------------------
  Decoupling Energy:                                               0.0372104752
  Recoupling Energy:                                              -0.0063758479
     1 OT DIIS     0.15E+00   10.5     0.00032107      -253.7449349758 -2.54E+02
  Decoupling Energy:                                               0.0372070486
  Recoupling Energy:                                              -0.0063758001
     2 OT DIIS     0.15E+00    2.7     0.00013152      -253.7458503159 -9.15E-04
  Decoupling Energy:                                               0.0372095743
  Recoupling Energy:                                              -0.0063758236
     3 OT DIIS     0.15E+00    2.7     0.00006248      -253.7460084655 -1.58E-04
  Decoupling Energy:                                               0.0372087051
  Recoupling Energy:                                              -0.0063758143
     4 OT DIIS     0.15E+00    2.7     0.00002444      -253.7460396045 -3.11E-05
  Decoupling Energy:                                               0.0372096286
  Recoupling Energy:                                              -0.0063758220
     5 OT DIIS     0.15E+00    2.7     0.00000523      -253.7460421630 -2.56E-06
  Decoupling Energy:                                               0.0372093142
  Recoupling Energy:                                              -0.0063758194
     6 OT DIIS     0.15E+00    2.7     0.00000252      -253.7460423063 -1.43E-07
  Decoupling Energy:                                               0.0372093082
  Recoupling Energy:                                              -0.0063758192
     7 OT DIIS     0.15E+00    2.6     0.00000089      -253.7460423385 -3.22E-08

  *** SCF run converged in     7 steps ***


  Electronic density on regular grids:       -180.0000000000       -0.0000000000
  Core density on regular grids:              180.9999999999       -0.0000000001
  Total charge density on r-space grids:        0.9999999999
  Total charge density g-space grids:           0.9999999999

  Overlap energy of the core charge distribution:               0.00001841776170
  Self energy of the core charge distribution:               -615.71576003586028
  Core Hamiltonian energy:                                    191.22471116018033
  Hartree energy:                                             248.04797469337615
  Exchange-correlation energy:                                -61.41798448164806
  Hartree-Fock Exchange energy:                               -18.11952092386336
  QM/MM Electrostatic energy:                                   2.23451883155904

  Total energy:                                              -253.74604233849450

  outer SCF iter =    1 RMS gradient =   0.89E-06 energy =       -253.7460423385
  outer SCF loop converged in   1 iterations or    7 steps

  Decoupling Energy:                                               0.0372093394
  Recoupling Energy:                                              -0.0063758195

 ENERGY| Total FORCE_EVAL ( QMMM ) energy [a.u.]:          -1094.307011900170210

 MD| ***************************************************************************
 MD| Step number                                                               5
 MD| Time [fs]                                                          5.000000
 MD| Conserved quantity [hartree]                            -0.848389417070E+03
 MD| ---------------------------------------------------------------------------
 MD|                                          Instantaneous             Averages
 MD| CPU time per MD step [s]                    102.051585           127.932571
 MD| Energy drift per atom [K]           0.792351955215E+00   0.584073307152E+01
 MD| Potential energy [hartree]         -0.109430701190E+04  -0.107545281853E+04
 MD| Total kinetic energy [hartree]      0.245917594831E+03   0.231217904820E+03
 MD| QM kinetic energy [hartree]         0.157564638495E+00   0.131234586651E+00
 MD| Total temperature [K]                       308.296082           289.867726
 MD| QM temperature [K]                          487.793316           406.279955
 MD| ***************************************************************************

  Translating the system in order to center the QM fragment in the QM box.

 Number of electrons:                                                        180
 Number of occupied orbitals:                                                 90
 Number of molecular orbitals:                                                90

 Number of orbital functions:                                               1067
 Number of independent orbital functions:                                   1067

 Extrapolation method: ASPC


 SCF WAVEFUNCTION OPTIMIZATION

  ----------------------------------- OT ---------------------------------------
  Minimizer      : DIIS                : direct inversion
                                         in the iterative subspace
                                         using   7 DIIS vectors
                                         safer DIIS on
  Preconditioner : FULL_ALL            : diagonalization, state selective
  Precond_solver : DEFAULT
  stepsize       :    0.15000000                  energy_gap     :    0.08000000
  eps_taylor     :   0.10000E-15                  max_taylor     :             4
  ----------------------------------- OT ---------------------------------------

  Step     Update method      Time    Convergence         Total energy    Change
  ------------------------------------------------------------------------------
  Decoupling Energy:                                               0.0372435502
  Recoupling Energy:                                              -0.0063762123
     1 OT DIIS     0.15E+00   10.6     0.00048909      -253.1925233816 -2.53E+02
  Decoupling Energy:                                               0.0372422092
  Recoupling Energy:                                              -0.0063762295
     2 OT DIIS     0.15E+00    2.7     0.00019194      -253.1946671287 -2.14E-03
  Decoupling Energy:                                               0.0372394099
  Recoupling Energy:                                              -0.0063761923
     3 OT DIIS     0.15E+00    2.6     0.00008074      -253.1950233601 -3.56E-04
  Decoupling Energy:                                               0.0372400124
  Recoupling Energy:                                              -0.0063762003
     4 OT DIIS     0.15E+00    2.7     0.00002262      -253.1950821852 -5.88E-05
  Decoupling Energy:                                               0.0372387487
  Recoupling Energy:                                              -0.0063761865
     5 OT DIIS     0.15E+00    2.6     0.00000839      -253.1950847816 -2.60E-06
  Decoupling Energy:                                               0.0372394890
  Recoupling Energy:                                              -0.0063761929
     6 OT DIIS     0.15E+00    2.7     0.00000288      -253.1950851411 -3.60E-07
  Decoupling Energy:                                               0.0372392322
  Recoupling Energy:                                              -0.0063761905
     7 OT DIIS     0.15E+00    2.6     0.00000086      -253.1950851818 -4.07E-08

  *** SCF run converged in     7 steps ***


  Electronic density on regular grids:       -180.0000000000       -0.0000000000
  Core density on regular grids:              180.9999999999       -0.0000000001
  Total charge density on r-space grids:        0.9999999999
  Total charge density g-space grids:           0.9999999999

  Overlap energy of the core charge distribution:               0.00001843270072
  Self energy of the core charge distribution:               -615.71576003586028
  Core Hamiltonian energy:                                    191.21893918240983
  Hartree energy:                                             248.05853833569080
  Exchange-correlation energy:                                -61.40902406008577
  Hartree-Fock Exchange energy:                               -18.11645229143232
  QM/MM Electrostatic energy:                                   2.76865525475140

  Total energy:                                              -253.19508518182565

  outer SCF iter =    1 RMS gradient =   0.86E-06 energy =       -253.1950851818
  outer SCF loop converged in   1 iterations or    7 steps

  Decoupling Energy:                                               0.0372392202
  Recoupling Energy:                                              -0.0063761903

 ENERGY| Total FORCE_EVAL ( QMMM ) energy [a.u.]:          -1057.339965754574450

 MD| ***************************************************************************
 MD| Step number                                                               6
 MD| Time [fs]                                                          6.000000
 MD| Conserved quantity [hartree]                            -0.842900325289E+03
 MD| ---------------------------------------------------------------------------
 MD|                                          Instantaneous             Averages
 MD| CPU time per MD step [s]                    101.502153           123.527501
 MD| Energy drift per atom [K]           0.111144401991E+02   0.671968425945E+01
 MD| Potential energy [hartree]         -0.105733996575E+04  -0.107243400974E+04
 MD| Total kinetic energy [hartree]      0.214439640465E+03   0.228421527427E+03
 MD| QM kinetic energy [hartree]         0.141132114987E+00   0.132884174707E+00
 MD| Total temperature [K]                       268.833554           286.362031
 MD| QM temperature [K]                          436.921019           411.386799
 MD| ***************************************************************************

 -------------------------------------------------------------------------------
 -                                                                             -
 -                                DBCSR STATISTICS                             -
 -                                                                             -
 -------------------------------------------------------------------------------
 COUNTER                                    TOTAL       BLAS       SMM       ACC
 flops     9 x    26 x    26              2810808       0.0%    100.0%      0.0%
 flops    22 x    26 x    26              7287280       0.0%    100.0%      0.0%
 flops     9 x    32 x    32              8515584       0.0%    100.0%      0.0%
 flops    26 x    26 x    26             12443808       0.0%    100.0%      0.0%
 flops    22 x    32 x    32             22077440       0.0%    100.0%      0.0%
 flops    26 x    26 x    89             27795768       0.0%    100.0%      0.0%
 flops    26 x    26 x    32             30630912       0.0%    100.0%      0.0%
 flops    26 x    32 x    26             30630912       0.0%    100.0%      0.0%
 flops    32 x    26 x    26             30630912       0.0%    100.0%      0.0%
 flops    89 x    26 x    26             33691840       0.0%    100.0%      0.0%
 flops    89 x    26 x    89             51898392       0.0%    100.0%      0.0%
 flops    26 x    32 x    89             68420352       0.0%    100.0%      0.0%
 flops    32 x    26 x    89             68420352       0.0%    100.0%      0.0%
 flops    32 x    32 x    26             75399168       0.0%    100.0%      0.0%
 flops    26 x    32 x    32             75399168       0.0%    100.0%      0.0%
 flops    32 x    26 x    32             75399168       0.0%    100.0%      0.0%
 flops    89 x    26 x    32             82933760       0.0%    100.0%      0.0%
 flops    89 x    32 x    26             82933760       0.0%    100.0%      0.0%
 flops    89 x    32 x    89            127749888       0.0%    100.0%      0.0%
 flops    26 x    26 x    84            131171040       0.0%    100.0%      0.0%
 flops    84 x    26 x    26            158995200       0.0%    100.0%      0.0%
 flops     9 x     9 x    26            165405240       0.0%    100.0%      0.0%
 flops    32 x    32 x    89            168419328       0.0%    100.0%      0.0%
 flops    26 x    26 x    93            174270096       0.0%    100.0%      0.0%
 flops    32 x    32 x    32            185597952       0.0%    100.0%      0.0%
 flops    89 x    32 x    32            204144640       0.0%    100.0%      0.0%
 flops    93 x    26 x    26            211236480       0.0%    100.0%      0.0%
 flops    84 x    26 x    89            244913760       0.0%    100.0%      0.0%
 flops    89 x    26 x    84            244913760       0.0%    100.0%      0.0%
 flops    26 x    32 x    84            322882560       0.0%    100.0%      0.0%
 flops    32 x    26 x    84            322882560       0.0%    100.0%      0.0%
 flops    93 x    26 x    89            325385424       0.0%    100.0%      0.0%
 flops    89 x    26 x    93            325385424       0.0%    100.0%      0.0%
 flops    84 x    32 x    26            391372800       0.0%    100.0%      0.0%
 flops    84 x    26 x    32            391372800       0.0%    100.0%      0.0%
 flops     9 x     9 x    32            407151360       0.0%    100.0%      0.0%
 flops    22 x     9 x    26            415855440       0.0%    100.0%      0.0%
 flops     9 x    22 x    26            416576160       0.0%    100.0%      0.0%
 flops    26 x    32 x    93            428972544       0.0%    100.0%      0.0%
 flops    32 x    26 x    93            428972544       0.0%    100.0%      0.0%
 flops    93 x    26 x    32            519966720       0.0%    100.0%      0.0%
 flops    93 x    32 x    26            519966720       0.0%    100.0%      0.0%
 flops    84 x    32 x    89            602864640       0.0%    100.0%      0.0%
 flops    89 x    32 x    84            602864640       0.0%    100.0%      0.0%
 flops    32 x    32 x    84            794787840       0.0%    100.0%      0.0%
 flops    93 x    32 x    89            800948736       0.0%    100.0%      0.0%
 flops    89 x    32 x    93            800948736       0.0%    100.0%      0.0%
 flops     9 x    26 x     9            802701900       0.0%    100.0%      0.0%
 flops    84 x    32 x    32            963379200       0.0%    100.0%      0.0%
 flops    22 x     9 x    32           1023644160       0.0%    100.0%      0.0%
 flops     9 x    22 x    32           1025418240       0.0%    100.0%      0.0%
 flops    32 x    32 x    93           1055932416       0.0%    100.0%      0.0%
 flops    22 x    22 x    26           1109908800       0.0%    100.0%      0.0%
 flops    84 x    26 x    84           1155772800       0.0%    100.0%      0.0%
 flops    93 x    32 x    32           1279918080       0.0%    100.0%      0.0%
 flops    93 x    26 x    84           1535526720       0.0%    100.0%      0.0%
 flops    84 x    26 x    93           1535526720       0.0%    100.0%      0.0%
 flops     9 x    32 x     9           1975881600       0.0%    100.0%      0.0%
 flops    93 x    26 x    93           2040056928       0.0%    100.0%      0.0%
 flops    22 x    26 x     9           2081079000       0.0%    100.0%      0.0%
 flops     9 x    26 x    22           2081079000       0.0%    100.0%      0.0%
 flops    22 x    22 x    32           2732083200       0.0%    100.0%      0.0%
 flops    84 x    32 x    84           2844979200       0.0%    100.0%      0.0%
 flops    84 x    32 x    93           3779758080       0.0%    100.0%      0.0%
 flops    93 x    32 x    84           3779758080       0.0%    100.0%      0.0%
 flops    93 x    32 x    93           5021678592       0.0%    100.0%      0.0%
 flops     9 x    32 x    22           5122656000       0.0%    100.0%      0.0%
 flops    22 x    32 x     9           5122656000       0.0%    100.0%      0.0%
 flops    22 x    26 x    22           5395390000       0.0%    100.0%      0.0%
 flops    22 x    32 x    22          13280960000       0.0%    100.0%      0.0%
 flops inhomo. stacks                           0       0.0%      0.0%      0.0%
 flops total                        78.369039E+09       0.0%    100.0%      0.0%
 flops max/rank                      2.493254E+09       0.0%    100.0%      0.0%
 matmuls inhomo. stacks                         0       0.0%      0.0%      0.0%
 matmuls total                            3040866       0.0%    100.0%      0.0%
 number of processed stacks                541362       0.0%    100.0%      0.0%
 average stack size                                     0.0       5.6       0.0
 marketing flops                    85.618672E+09
 -------------------------------------------------------------------------------
 # multiplications                           1250
 max memory usage/rank               1.879917E+09
 # max total images/rank                        1
 # max 3D layers                                1
 # MPI messages exchanged                 3960000
 MPI messages size (bytes):
  total size                        40.917934E+09
  min size                           0.000000E+00
  max size                          69.192000E+03
  average size                      10.332812E+03
 MPI breakdown and total messages size (bytes):
             size <=      128             2913933                        0
       128 < size <=     8192               98043                705924384
      8192 < size <=    32768              471240              10056261600
     32768 < size <=   131072              476784              30156296632
    131072 < size <=  4194304                   0                        0
   4194304 < size <= 16777216                   0                        0
  16777216 < size                               0                        0
 -------------------------------------------------------------------------------
 -                                                                             -
 -                      DBCSR MESSAGE PASSING PERFORMANCE                      -
 -                                                                             -
 -------------------------------------------------------------------------------
 ROUTINE             CALLS      AVE VOLUME [Bytes]
 MP_Bcast               71                     12.
 MP_Allreduce         6710                      8.
 MP_Alltoall          5272                  31974.
 MP_ISend            59972                   7351.
 MP_IRecv            59972                   7121.
 -------------------------------------------------------------------------------

 -------------------------------------------------------------------------------
 -                                                                             -
 -                                GRID STATISTICS                              -
 -                                                                             -
 -------------------------------------------------------------------------------
 LP    KERNEL             BACKEND                              COUNT     PERCENT
 2     collocate ortho    REF                                1126269      18.81%
 2     integrate ortho    REF                                1106014      18.47%
 1     collocate ortho    REF                                 943978      15.76%
 1     integrate ortho    REF                                 870340      14.53%
 3     integrate ortho    REF                                 570062       9.52%
 3     collocate ortho    REF                                 500530       8.36%
 0     collocate ortho    REF                                 281245       4.70%
 0     integrate ortho    REF                                 249988       4.17%
 4     integrate ortho    REF                                 121240       2.02%
 4     collocate ortho    REF                                  73823       1.23%
 0     collocate general  REF                                  68544       1.14%
 1     integrate general  REF                                  68544       1.14%
 5     integrate ortho    REF                                   8201       0.14%
 -------------------------------------------------------------------------------

 MEMORY| Estimated peak process memory [MiB]                                1793

 -------------------------------------------------------------------------------
 -                                                                             -
 -                         MESSAGE PASSING PERFORMANCE                         -
 -                                                                             -
 -------------------------------------------------------------------------------

 ROUTINE             CALLS      AVE VOLUME [Bytes]
 MP_Group                8
 MP_Bcast             6921               10597658.
 MP_Allreduce         2494                1648000.
 MP_Sync               395
 MP_Alltoall          1344                7695588.
 MP_ISendRecv        59059                  35115.
 MP_Wait             73010
 MP_ISend            12747                 187151.
 MP_IRecv            12516                 190120.
 MP_Recv                77                  68288.
 -------------------------------------------------------------------------------


 -------------------------------------------------------------------------------
 -                                                                             -
 -                           R E F E R E N C E S                               -
 -                                                                             -
 -------------------------------------------------------------------------------
 
 CP2K version 8.1, the CP2K developers group (2020).
 CP2K is freely available from https://www.cp2k.org/ .

 Kuehne,Thomas D.; Iannuzzi,Marcella; Del Ben,Mauro;
 Rybkin,Vladimir V.; Seewald,Patrick; Stein,Frederick; Laino,Teodoro;
 Khaliullin,Rustam Z.; Schuett,Ole; Schiffmann,Florian; Golze,Dorothea;
 Wilhelm,Jan; Chulkov,Sergey; Bani-Hashemian,Mohammad Hossein;
 Weber,Valery; Borstnik,Urban; Taillefumier,Mathieu;
 Jakobovits,Alice Shoshana; Lazzaro,Alfio; Pabst,Hans; Mueller,Tiziano;
 Schade,Robert; Guidon,Manuel; Andermatt,Samuel; Holmberg,Nico;
 Schenter,Gregory K.; Hehn,Anna; Bussy,Augustin; Belleflamme,Fabian;
 Tabacchi,Gloria; Gloess,Andreas; Lass,Michael; Bethune,Iain;
 Mundy,Christopher J.; Plessl,Christian; Watkins,Matt;
 VandeVondele,Joost; Krack,Matthias; Hutter,Juerg. 
 The Journal of Chemical Physics, 152 (19), (2020). 
 CP2K: An electronic structure and molecular dynamics software package -
 Quickstep: Efficient and accurate electronic structure calculations.
 https://doi.org/10.1063/5.0007045

 Schuett, Ole; Messmer, Peter; Hutter, Juerg; VandeVondele, Joost. 
 Electronic Structure Calculations on Graphics Processing Units, John
 Wiley & Sons, Ltd, 173-190 (2016). 
 GPU-Accelerated Sparse Matrix-Matrix Multiplication for
 Linear Scaling Density Functional Theory.
 https://doi.org/10.1002/9781118670712.ch8

 Borstnik, U; VandeVondele, J; Weber, V; Hutter, J. 
 PARALLEL COMPUTING, 40 (5-6), 47-58 (2014). 
 Sparse matrix multiplication: The distributed block-compressed sparse
 row library.
 https://doi.org/10.1016/j.parco.2014.03.012

 Hutter, J; Iannuzzi, M; Schiffmann, F; VandeVondele, J. 
 WIREs Comput Mol Sci., 4 (1), 15-25 (2014). 
 CP2K: atomistic simulations of condensed matter systems.
 https://doi.org/10.1002/wcms.1159

 Marek, A; Blum, V; Johanni, R; Havu, V; Lang, B; Auckenthaler, T;
 Heinecke, A; Bungartz, H; Lederer, H. 
 Journal of Physics: Condensed Matter, 26 (21), (2014). 
 The ELPA library: scalable parallel eigenvalue solutions for
 electronic structure
 theory and computational science.
 https://doi.org/10.1088/0953-8984/26/21/213201

 Guidon, M; Hutter, J; VandeVondele, J. 
 JOURNAL OF CHEMICAL THEORY AND COMPUTATION, 5 (11), 3010-3021 (2009). 
 Robust Periodic Hartree-Fock Exchange for Large-Scale Simulations Using
 Gaussian Basis Sets.
 https://doi.org/10.1021/ct900494g

 Guidon, M; Schiffmann, F; Hutter, J; VandeVondele, J. 
 JOURNAL OF CHEMICAL PHYSICS, 128 (21), 214104 (2008). 
 Ab initio molecular dynamics using hybrid density functionals.
 https://doi.org/10.1063/1.2931945

 Kuhne, TD; Krack, M; Mohamed, FR; Parrinello, M. 
 PHYSICAL REVIEW LETTERS, 98 (6), 066401 (2007). 
 Efficient and accurate Car-Parrinello-like approach to
 Born-Oppenheimer molecular dynamics.
 https://doi.org/10.1103/PhysRevLett.98.066401

 Laino, T; Mohamed, F; Laio, A; Parrinello, M. 
 JOURNAL OF CHEMICAL THEORY AND COMPUTATION, 2 (5), 1370-1378 (2006). 
 An efficient linear-scaling electrostatic coupling for treating
 periodic boundary conditions in QM/MM simulations.
 https://doi.org/10.1021/ct6001169

 Laino, T; Mohamed, F; Laio, A; Parrinello, M. 
 JOURNAL OF CHEMICAL THEORY AND COMPUTATION, 1 (6), 1176-1184 (2005). 
 An efficient real space multigrid QM/MM electrostatic coupling.
 https://doi.org/10.1021/ct050123f

 Krack, M. 
 THEORETICAL CHEMISTRY ACCOUNTS, 114 (1-3), 145-152 (2005). 
 Pseudopotentials for H to Kr optimized for gradient-corrected
 exchange-correlation functionals.
 https://doi.org/10.1007/s00214-005-0655-y

 VandeVondele, J; Krack, M; Mohamed, F; Parrinello, M; Chassaing, T;
 Hutter, J. COMPUTER PHYSICS COMMUNICATIONS, 167 (2), 103-128 (2005). 
 QUICKSTEP: Fast and accurate density functional calculations using a
 mixed Gaussian and plane waves approach.
 https://doi.org/10.1016/j.cpc.2004.12.014

 Frigo, M; Johnson, SG. 
 PROCEEDINGS OF THE IEEE, 93 (2), 216-231 (2005). 
 The design and implementation of FFTW3.
 https://doi.org/10.1109/JPROC.2004.840301

 Kolafa, J. 
 JOURNAL OF COMPUTATIONAL CHEMISTRY, 25 (3), 335-342 (2004). 
 Time-reversible always stable predictor-corrector method for molecular dynamics of polarizable molecules.
 https://doi.org/10.1002/jcc.10385

 VandeVondele, J; Hutter, J. 
 JOURNAL OF CHEMICAL PHYSICS, 118 (10), 4365-4369 (2003). 
 An efficient orbital transformation method for electronic structure
 calculations.
 https://doi.org/10.1063/1.1543154

 Hartwigsen, C; Goedecker, S; Hutter, J. 
 PHYSICAL REVIEW B, 58 (7), 3641-3662 (1998). 
 Relativistic separable dual-space Gaussian pseudopotentials from H to Rn.
 https://doi.org/10.1103/PhysRevB.58.3641

 Lippert, G; Hutter, J; Parrinello, M. 
 MOLECULAR PHYSICS, 92 (3), 477-487 (1997). 
 A hybrid Gaussian and plane wave density functional scheme.
 https://doi.org/10.1080/002689797170220

 Perdew, JP; Burke, K; Ernzerhof, M. 
 PHYSICAL REVIEW LETTERS, 77 (18), 3865-3868 (1996). 
 Generalized gradient approximation made simple.
 https://doi.org/10.1103/PhysRevLett.77.3865

 Goedecker, S; Teter, M; Hutter, J. 
 PHYSICAL REVIEW B, 54 (3), 1703-1710 (1996). 
 Separable dual-space Gaussian pseudopotentials.
 https://doi.org/10.1103/PhysRevB.54.1703

 ESSMANN, U; PERERA, L; BERKOWITZ, ML; DARDEN, T; LEE, H; PEDERSEN, LG. 
 JOURNAL OF CHEMICAL PHYSICS, 103 (19), 8577-8593 (1995). 
 A SMOOTH PARTICLE MESH EWALD METHOD.
 https://doi.org/10.1063/1.470117

 BLOCHL, PE. 
 JOURNAL OF CHEMICAL PHYSICS, 103 (17), 7422-7428 (1995). 
 ELECTROSTATIC DECOUPLING OF PERIODIC IMAGES OF PLANE-WAVE-EXPANDED
 DENSITIES AND DERIVED ATOMIC POINT CHARGES.
 https://doi.org/10.1063/1.470314


 -------------------------------------------------------------------------------
 -                                                                             -
 -                                T I M I N G                                  -
 -                                                                             -
 -------------------------------------------------------------------------------
 SUBROUTINE                       CALLS  ASD         SELF TIME        TOTAL TIME
                                MAXIMUM       AVERAGE  MAXIMUM  AVERAGE  MAXIMUM
 CP2K                                 1  1.0    0.628    0.658  805.877  805.878
 qs_mol_dyn_low                       1  2.0    0.019    0.021  742.450  744.519
 velocity_verlet                      6  3.0    0.094    0.097  621.084  621.117
 qs_forces                            7  3.9    0.001    0.002  448.198  448.228
 rebuild_ks_matrix                   63  8.5    0.000    0.000  411.332  411.352
 qs_ks_build_kohn_sham_matrix        63  9.5    0.009    0.011  411.332  411.352
 hfx_ks_matrix                       63 10.5    0.002    0.002  344.505  344.506
 qs_ks_update_qs_env_forces           7  4.9    0.000    0.000  230.488  230.490
 qs_energies                          7  4.9    0.000    0.001  217.501  217.530
 derivatives_four_center              7  8.9    0.013    0.378  214.591  214.591
 derivatives_four_center_main         7  9.9    0.002    0.002  213.831  213.831
 derivatives_four_center_bin        490 10.9  196.865  212.376  196.865  212.376
 scf_env_do_scf                       7  5.9    0.000    0.001  211.528  211.528
 qs_ks_update_qs_env                 63  7.8    0.000    0.001  180.851  180.869
 qmmm_forces                          7  3.9    0.092    0.100  161.676  161.683
 qmmm_forces_with_gaussian            7  4.9    0.048    0.055  158.252  160.057
 scf_env_do_scf_inner_loop           56  6.8    0.002    0.004  133.925  133.946
 integrate_four_center               63 11.5    0.282    0.660  129.907  129.908
 integrate_four_center_main          63 12.5    0.019    0.021  120.376  121.780
 integrate_four_center_bin         4079 13.5  120.357  121.761  120.357  121.761
 qmmm_el_coupling                     7  3.9    0.000    0.000  118.137  118.893
 qmmm_elec_with_gaussian              7  4.9    0.020    0.032  118.129  118.884
 qmmm_force_with_gaussian_low         7  5.9    0.000    0.000   84.997   86.393
 init_scf_loop                        7  6.9    0.000    0.000   77.577   77.582
 qmmm_forces_gaussian_low_R           7  6.9    0.000    0.000   72.368   73.687
 qmmm_forces_with_gaussian_LG         7  7.9   72.368   73.687   72.368   73.687
 pw_restrict_s3                      21  5.9   24.857   25.838   62.416   63.535
 qmmm_env_create                      1  2.0   16.541   17.493   60.700   60.708
 qmmm_elec_with_gaussian_low          7  5.9    0.000    0.000   56.424   58.796
 pw_transfer                       1337 12.0    0.092    0.109   50.416   53.123
 fft_wrap_pw1pw2                   1113 13.1    0.014    0.016   49.765   52.477
 qmmm_elec_gaussian_low_R             7  6.9    0.000    0.000   49.277   51.958
 qmmm_elec_with_gaussian_LG           7  7.9   49.277   51.958   49.277   51.958
 fft_wrap_pw1pw2_200                707 14.4    2.460    2.700   45.331   48.072
 qmmm_elec_with_gaussian:spline       7  5.9    0.000    0.000   47.356   48.071
 pw_prolongate_s3                    21  6.9   18.748   19.576   47.356   48.071
 fft3d_ps                          1113 15.1   16.598   20.439   42.277   44.976
 pw_integral_ab                    2967  7.5   40.270   41.530   40.987   42.518
 fist_init                            1  3.0    0.000    0.000   39.059   39.060
 qs_vxc_create                       63 10.5    0.001    0.002   33.909   33.917
 xc_vxc_pw_create                    63 11.5    0.230    0.296   33.908   33.915
 qs_rho_update_rho                   63  7.9    0.000    0.000   30.780   30.796
 calculate_rho_elec                  63  8.9    0.069    0.091   30.780   30.796
 density_rs2pw                       63  9.9    0.004    0.005   27.294   28.600
 rs_pw_transfer                     546 11.8    0.010    0.014   27.080   28.124
 mp_sum_dm3                          38  5.7   25.596   26.654   25.596   26.654
 mp_alltoall_z22v                  1113 17.1   22.966   25.877   22.966   25.877
 sum_up_and_integrate                63 10.5    0.079    0.111   25.755   25.792
 integrate_v_rspace                  63 11.5    0.002    0.003   25.676   25.722
 force_field_control                  1  4.0    0.000    0.000   22.687   23.166
 mp_sum_lv                           91  3.9   16.969   20.626   16.969   20.626
 mp_waitany                       12516 13.7   17.424   18.767   17.424   18.767
 grid_collocate_task_list            63  9.9    2.936   18.536    2.936   18.536
 yz_to_x                            518 15.7    0.852    0.971   15.778   18.397
 rdparm_amber_8                       2  6.5   14.400   15.739   18.155   18.286
 rs_pw_transfer_RS2PW_200            70 11.7    2.019    2.721   14.357   18.008
 xc_rho_set_and_dset_create          63 12.5    0.113    0.128   14.508   17.355
 topology_control                     1  4.0    0.000    0.000   15.925   16.600
 -------------------------------------------------------------------------------

 The number of warnings for this run is : 0
 
 -------------------------------------------------------------------------------
  **** **** ******  **  PROGRAM ENDED AT                 2021-04-19 14:43:03.640
 ***** ** ***  *** **   PROGRAM RAN ON                                   r1i1n26
 **    ****   ******    PROGRAM RAN BY                                    hollyj
 ***** **    ** ** **   PROGRAM PROCESS ID                                 55955
  **** **  *******  **  PROGRAM STOPPED IN /lustre/home/w68/hollyj/CP2K/Cirrus/C
                                           PU/cp2kMD/CBD_PHY-PBE0/6STEPS/4NODES/
                                           36CPN/1THREADS
