 DBCSR| CPU Multiplication driver                                           XSMM
 DBCSR| Multrec recursion limit                                              512
 DBCSR| Multiplication stack size                                           1000
 DBCSR| Maximum elements for images                                    UNLIMITED
 DBCSR| Multiplicative factor virtual images                                   1
 DBCSR| Use multiplication densification                                       T
 DBCSR| Multiplication size stacks                                             3
 DBCSR| Use memory pool for CPU allocation                                     F
 DBCSR| Number of 3D layers                                               SINGLE
 DBCSR| Use MPI memory allocation                                              F
 DBCSR| Use RMA algorithm                                                      F
 DBCSR| Use Communication thread                                               T
 DBCSR| Communication thread load                                             83
 DBCSR| MPI: My node id                                                        0
 DBCSR| MPI: Number of nodes                                                 144
 DBCSR| OMP: Current number of threads                                         2
 DBCSR| OMP: Max number of threads                                             2
 DBCSR| Split modifier for TAS multiplication algorithm                  1.0E+00


  **** **** ******  **  PROGRAM STARTED AT               2021-04-20 14:41:51.995
 ***** ** ***  *** **   PROGRAM STARTED ON                                r1i3n3
 **    ****   ******    PROGRAM STARTED BY                                hollyj
 ***** **    ** ** **   PROGRAM PROCESS ID                                 59435
  **** **  *******  **  PROGRAM STARTED IN /lustre/home/w68/hollyj/CP2K/Cirrus/C
                                           PU/cp2kMD/ClC-253-BLYP/6STEPS/8NODES/
                                           36CPN/2THREADS

 CP2K| version string:                                          CP2K version 8.1
 CP2K| source code revision number:                                  git:0b61f2f
 CP2K| cp2kflags: omp libint fftw3 libxc elpa parallel mpi3 scalapack xsmm spgli
 CP2K|            b mkl
 CP2K| is freely available from                            https://www.cp2k.org/
 CP2K| Program compiled at                           Mon Feb 1 13:14:42 GMT 2021
 CP2K| Program compiled on                                         cirrus-login1
 CP2K| Program compiled for                                           Cirrus-gcc
 CP2K| Data directory path       /lustre/home/w68/hollyj/CP2K/v8.1/cp2k-8.1/data
 CP2K| Input file name                                          ClC-253-cp2k.inp

 GLOBAL| Force Environment number                                              1
 GLOBAL| Basis set file name                                        BASIS_MOLOPT
 GLOBAL| Potential file name                                           POTENTIAL
 GLOBAL| MM Potential file name                                     MM_POTENTIAL
 GLOBAL| Coordinate file name                                            ClC.pdb
 GLOBAL| Method name                                                        CP2K
 GLOBAL| Project name                                               ClC-253-BLYP
 GLOBAL| Preferred FFT library                                             FFTW3
 GLOBAL| Preferred diagonalization lib.                                     ELPA
 GLOBAL| Run type                                                             MD
 GLOBAL| All-to-all communication in single precision                          F
 GLOBAL| FFTs using library dependent lengths                                  F
 GLOBAL| Global print level                                                  LOW
 GLOBAL| MPI I/O enabled                                                       T
 GLOBAL| Total number of message passing processes                           144
 GLOBAL| Number of threads for this process                                    2
 GLOBAL| This output is from process                                           0
 GLOBAL| CPU model name                Intel(R) Xeon(R) CPU E5-2695 v4 @ 2.10GHz
 GLOBAL| CPUID                                                              1002
 GLOBAL| Compiled for CPUID                                                 1001

 *** HINT in environment.F:802 :: The compiler target flags (x86_avx) used ***
 *** to build this binary cannot exploit all extensions of this CPU model  ***
 *** (x86_avx2). Consider compiler target flags as part of FCFLAGS and     ***
 *** CFLAGS (ARCH file).                                                   ***


 MEMORY| system memory details [Kb]
 MEMORY|                        rank 0           min           max       average
 MEMORY| MemTotal            263692172     263692092     263692180     263692164
 MEMORY| MemFree             259427768     259427768     259977652     259718535
 MEMORY| Buffers                     0             0             0             0
 MEMORY| Cached                 743980        533832        743980        581871
 MEMORY| Slab                   927084        817524        927084        879059
 MEMORY| SReclaimable           211216        185524        220688        203513
 MEMORY| MemLikelyFree       260382964     260382964     260722644     260503919



                      ************* ******** ***********   
                     ************* **********************  
                     ****     **** ****      ***********   
                     ******** ****  *******     ****       
                     *******  ****   *******   ****        
                     ****     ****       ****  ****        
                     ****     **** **********  ****        
                      ****     **** ********    ****       
                     FRONTIERS IN SIMULATION TECHNOLOGY    
                                                           
                        C.J. Mundy, S. Balasubramanian,    
                     Ken Bagchi, J. Hutter, Ari Seitsonen  
                      IFW Kuo, T. Laino, J. VandeVondele   
                                 Version 1.0               

                                                           


 EWALD| Summation is done by:                                               SPME
 EWALD| Alpha parameter [       ANGSTROM^-1]                              0.4000
 EWALD| Real Space Cutoff [          ANGSTROM]                            8.4348
 EWALD| G-space max. Miller index                         80        80        80
 EWALD| Spline interpolation order                                             6

 FORCEFIELD| WARNING: A non Critical ForceField parameter is missing! CP2K GOES!
 FORCEFIELD| Non critical parameters are:Urey-Bradley,Torsions,Impropers, Opbends and 1-4
 FORCEFIELD| All missing parameters will not contribute to the potential energy!
 FORCEFIELD| Activate the print key FF_INFO to have a list of missing parameters

 CHARGE_INFO| Total Charge of the Classical System:                     2.369895

 SPLINE_INFO| Generating 85491 splines for NONBONDED14 interactions 
              Due to 413 different atomic kinds
  ...8549  ...17098  ...25647  ...34196  ...42745  ...51294  ...59843  ...68392  ...76941  ...85490
 SPLINE_INFO| Number of unique splines computed:            254
 SPLINE_INFO| Done

 SPLINE_INFO| Generating 85491 splines for NONBONDED interactions 
              Due to 413 different atomic kinds
  ...8549  ...17098  ...25647  ...34196  ...42745  ...51294  ...59843  ...68392  ...76941  ...85490
 SPLINE_INFO| Number of unique splines computed:            254
 SPLINE_INFO| Done

 *******************************************************************************
 *******************************************************************************
 **                                                                           **
 **     #####                         ##              ##                      **
 **    ##   ##            ##          ##              ##                      **
 **   ##     ##                       ##            ######                    **
 **   ##     ##  ##   ##  ##   #####  ##  ##   ####   ##    #####    #####    **
 **   ##     ##  ##   ##  ##  ##      ## ##   ##      ##   ##   ##  ##   ##   **
 **   ##  ## ##  ##   ##  ##  ##      ####     ###    ##   ######   ######    **
 **    ##  ###   ##   ##  ##  ##      ## ##      ##   ##   ##       ##        **
 **     #######   #####   ##   #####  ##  ##  ####    ##    #####   ##        **
 **           ##                                                    ##        **
 **                                                                           **
 **                                                ... make the atoms dance   **
 **                                                                           **
 **            Copyright (C) by CP2K developers group (2000 - 2020)           **
 **                      J. Chem. Phys. 152, 194103 (2020)                    **
 **                                                                           **
 *******************************************************************************


 TOTAL NUMBERS AND MAXIMUM NUMBERS

  Total number of            - Atomic kinds:                                   6
                             - Atoms:                                        253
                             - Shell sets:                                   253
                             - Shells:                                       991
                             - Primitive Cartesian functions:               1770
                             - Cartesian basis functions:                   2309
                             - Spherical basis functions:                   2193

  Maximum angular momentum of- Orbital basis functions:                        2
                             - Local part of the GTH pseudopotential:          2
                             - Non-local part of the GTH pseudopotential:      2


 SCF PARAMETERS         Density guess:                                   RESTART
                        --------------------------------------------------------
                        max_scf:                                             300
                        max_scf_history:                                       0
                        max_diis:                                              4
                        --------------------------------------------------------
                        eps_scf:                                        1.00E-06
                        eps_scf_history:                                0.00E+00
                        eps_diis:                                       1.00E-01
                        eps_eigval:                                     1.00E-05
                        --------------------------------------------------------
                        level_shift [a.u.]:                                 0.00
                        --------------------------------------------------------
                        No outer SCF

 *******************************************************************************
 *******************************************************************************
 **                                                                           **
 **             #######  ##     ## ##     ## ##     ##                        **
 **            ##     ## ###   ### ###   ### ###   ###                        **
 **            ##     ## #### #### #### #### #### ####                        **
 **            ##     ## ## ### ## ## ### ## ## ### ##                        **
 **            ##  ## ## ##     ## ##     ## ##     ##                        **
 **            ##    ##  ##     ## ##     ## ##     ##  T.Laino and F.Mohamed **
 **             ##### ## ##     ## ##     ## ##     ##  2005 - 2015           **
 **                                                                           **
 **                                                     Calculation Started.. **
 *******************************************************************************
 *******************************************************************************

 MD_PAR| Molecular dynamics protocol (MD input parameters)
 MD_PAR| Ensemble type                                                       NVE
 MD_PAR| Number of time steps                                                  6
 MD_PAR| Time step [fs]                                                 1.000000
 MD_PAR| Temperature [K]                                              300.000000
 MD_PAR| Temperature tolerance [K]                                      0.000000
 MD_PAR| Print MD information every                                    1 step(s)
 MD_PAR| File type   Print frequency [steps]                          File names
 MD_PAR| Coordinates          1                           ClC-253-BLYP-pos-1.xyz
 MD_PAR| Velocities           1                           ClC-253-BLYP-vel-1.xyz
 MD_PAR| Energies             1                              ClC-253-BLYP-1.ener
 MD_PAR| Dump                20                           ClC-253-BLYP-1.restart

 ROT| Rotational analysis information
 ROT| Principal axes and moments of inertia [a.u.]
 ROT|                           1                   2                   3
 ROT| Eigenvalues      1.18228221563E+13   1.18772146411E+13   1.55923586977E+13
 ROT|      x             -0.973134378681     -0.230223222672      0.002597839626
 ROT|      y             -0.230225448758      0.973137141292     -0.000589052320
 ROT|      z              0.002392440703      0.001171315857      0.999996452117
 ROT| Number of rotovibrational vectors                                        6

 DOF| Calculation of degrees of freedom
 DOF| Number of atoms                                                     150925
 DOF| Number of intramolecular constraints                                     0
 DOF| Number of intermolecular constraints                                     0
 DOF| Invariants (translations + rotations)                                    3
 DOF| Degrees of freedom                                                  452772

 DOF| Restraints information
 DOF| Number of intramolecular restraints                                      0
 DOF| Number of intermolecular restraints                                      0

 MD_VEL| Velocities initialization
 MD_VEL| Initial temperature [K]                                      300.000000
 MD_VEL| COM velocity            -0.0000000000     0.0000000000     0.0000000000

  Translating the system in order to center the QM fragment in the QM box.

 Number of electrons:                                                        654
 Number of occupied orbitals:                                                327
 Number of molecular orbitals:                                               327

 Number of orbital functions:                                               2193
 Number of independent orbital functions:                                   2193

 Extrapolation method: initial_guess


 SCF WAVEFUNCTION OPTIMIZATION

  ----------------------------------- OT ---------------------------------------
  Minimizer      : DIIS                : direct inversion
                                         in the iterative subspace
                                         using   7 DIIS vectors
                                         safer DIIS on
  Preconditioner : FULL_ALL            : diagonalization, state selective
  Precond_solver : DEFAULT
  stepsize       :    0.15000000                  energy_gap     :    0.08000000
  eps_taylor     :   0.10000E-15                  max_taylor     :             4
  ----------------------------------- OT ---------------------------------------

  Step     Update method      Time    Convergence         Total energy    Change
  ------------------------------------------------------------------------------
  Decoupling Energy:                                               0.0675035110
  Recoupling Energy:                                              -0.0068223751
     1 OT DIIS     0.15E+00    1.6     0.00000111     -1098.7918323422 -1.10E+03
  Decoupling Energy:                                               0.0675004361
  Recoupling Energy:                                              -0.0068222921
     2 OT DIIS     0.15E+00    1.9     0.00000182     -1098.7918324061 -6.39E-08
  Decoupling Energy:                                               0.0675017269
  Recoupling Energy:                                              -0.0068223358
     3 OT DIIS     0.15E+00    1.9     0.00000098     -1098.7918324634 -5.73E-08

  *** SCF run converged in     3 steps ***


  Electronic density on regular grids:       -654.0000008477       -0.0000008477
  Core density on regular grids:              654.9999999994       -0.0000000006
  Total charge density on r-space grids:        0.9999991517
  Total charge density g-space grids:           0.9999991517

  Overlap energy of the core charge distribution:               0.00004213532864
  Self energy of the core charge distribution:              -2459.11679630764229
  Core Hamiltonian energy:                                    751.03829819308817
  Hartree energy:                                            1002.26599084248369
  Exchange-correlation energy:                               -294.03608875667373
  QM/MM Electrostatic energy:                                 -98.94327856993971

  Total energy:                                             -1098.79183246335515
  Decoupling Energy:                                               0.0675016129
  Recoupling Energy:                                              -0.0068223367

 ENERGY| Total FORCE_EVAL ( QMMM ) energy [a.u.]:          -1469.875700984363903

 MD_INI| MD initialization
 MD_INI| Potential energy [hartree]                          -0.146987570098E+04
 MD_INI| Total kinetic energy [hartree]                       0.215076797492E+03
 MD_INI| QM kinetic energy [hartree]                          0.369606607592E+00
 MD_INI| Total temperature [K]                                        300.000000
 MD_INI| QM temperature [K]                                           307.542546
 MD_INI| Cell volume [bohr^3]                                 9.853827160554E+06
 MD_INI| Cell volume [ang^3]                                  1.460186515536E+06
 MD_INI| Cell lengths [bohr]      2.39870119E+02  2.39870119E+02  1.71258698E+02
 MD_INI| Cell lengths [ang]       1.26933800E+02  1.26933800E+02  9.06262000E+01
 MD_INI| Cell angles [deg]        9.00000000E+01  9.00000000E+01  9.00000000E+01

  Translating the system in order to center the QM fragment in the QM box.

 Number of electrons:                                                        654
 Number of occupied orbitals:                                                327
 Number of molecular orbitals:                                               327

 Number of orbital functions:                                               2193
 Number of independent orbital functions:                                   2193

 Extrapolation method: ASPC


 SCF WAVEFUNCTION OPTIMIZATION

  ----------------------------------- OT ---------------------------------------
  Minimizer      : DIIS                : direct inversion
                                         in the iterative subspace
                                         using   7 DIIS vectors
                                         safer DIIS on
  Preconditioner : FULL_ALL            : diagonalization, state selective
  Precond_solver : DEFAULT
  stepsize       :    0.15000000                  energy_gap     :    0.08000000
  eps_taylor     :   0.10000E-15                  max_taylor     :             4
  ----------------------------------- OT ---------------------------------------

  Step     Update method      Time    Convergence         Total energy    Change
  ------------------------------------------------------------------------------
  Decoupling Energy:                                               0.0676658532
  Recoupling Energy:                                              -0.0068237527
     1 OT DIIS     0.15E+00    1.6     0.00038779     -1098.3649169401 -1.10E+03
  Decoupling Energy:                                               0.0674445569
  Recoupling Energy:                                              -0.0068207230
     2 OT DIIS     0.15E+00    1.9     0.00028012     -1098.3740152437 -9.10E-03
  Decoupling Energy:                                               0.0676512653
  Recoupling Energy:                                              -0.0068214650
     3 OT DIIS     0.15E+00    1.9     0.00045365     -1098.3736236496  3.92E-04
  Decoupling Energy:                                               0.0674776465
  Recoupling Energy:                                              -0.0068213531
     4 OT DIIS     0.15E+00    1.9     0.00017745     -1098.3760440198 -2.42E-03
  Decoupling Energy:                                               0.0674299755
  Recoupling Energy:                                              -0.0068207525
     5 OT DIIS     0.15E+00    1.9     0.00005926     -1098.3765439022 -5.00E-04
  Decoupling Energy:                                               0.0674468743
  Recoupling Energy:                                              -0.0068203542
     6 OT DIIS     0.15E+00    1.9     0.00004388     -1098.3765866377 -4.27E-05
  Decoupling Energy:                                               0.0674565707
  Recoupling Energy:                                              -0.0068208136
     7 OT DIIS     0.15E+00    1.9     0.00001587     -1098.3766086121 -2.20E-05
  Decoupling Energy:                                               0.0674431897
  Recoupling Energy:                                              -0.0068207177
     8 OT DIIS     0.15E+00    1.9     0.00000828     -1098.3766147349 -6.12E-06
  Decoupling Energy:                                               0.0674418194
  Recoupling Energy:                                              -0.0068205796
     9 OT DIIS     0.15E+00    1.9     0.00000615     -1098.3766170736 -2.34E-06
  Decoupling Energy:                                               0.0674451774
  Recoupling Energy:                                              -0.0068208128
    10 OT DIIS     0.15E+00    1.9     0.00000531     -1098.3766198760 -2.80E-06
  Decoupling Energy:                                               0.0674342587
  Recoupling Energy:                                              -0.0068206129
    11 OT DIIS     0.15E+00    1.9     0.00000394     -1098.3766225783 -2.70E-06
  Decoupling Energy:                                               0.0674351489
  Recoupling Energy:                                              -0.0068206950
    12 OT DIIS     0.15E+00    1.9     0.00000315     -1098.3766249101 -2.33E-06
  Decoupling Energy:                                               0.0674326703
  Recoupling Energy:                                              -0.0068207139
    13 OT DIIS     0.15E+00    2.0     0.00000297     -1098.3766264532 -1.54E-06
  Decoupling Energy:                                               0.0674322211
  Recoupling Energy:                                              -0.0068206876
    14 OT DIIS     0.15E+00    1.9     0.00000295     -1098.3766272699 -8.17E-07
  Decoupling Energy:                                               0.0674315990
  Recoupling Energy:                                              -0.0068207107
    15 OT DIIS     0.15E+00    1.9     0.00000271     -1098.3766281203 -8.50E-07
  Decoupling Energy:                                               0.0674308683
  Recoupling Energy:                                              -0.0068207162
    16 OT DIIS     0.15E+00    1.9     0.00000247     -1098.3766288344 -7.14E-07
  Decoupling Energy:                                               0.0674315678
  Recoupling Energy:                                              -0.0068207194
    17 OT DIIS     0.15E+00    1.9     0.00000220     -1098.3766294315 -5.97E-07
  Decoupling Energy:                                               0.0674323118
  Recoupling Energy:                                              -0.0068207585
    18 OT DIIS     0.15E+00    2.0     0.00000194     -1098.3766303409 -9.09E-07
  Decoupling Energy:                                               0.0674295111
  Recoupling Energy:                                              -0.0068207023
    19 OT DIIS     0.15E+00    2.0     0.00000176     -1098.3766309096 -5.69E-07
  Decoupling Energy:                                               0.0674302148
  Recoupling Energy:                                              -0.0068207360
    20 OT DIIS     0.15E+00    2.0     0.00000156     -1098.3766315910 -6.81E-07
  Decoupling Energy:                                               0.0674298223
  Recoupling Energy:                                              -0.0068207251
    21 OT DIIS     0.15E+00    1.9     0.00000147     -1098.3766321294 -5.38E-07
  Decoupling Energy:                                               0.0674290629
  Recoupling Energy:                                              -0.0068207126
    22 OT DIIS     0.15E+00    1.9     0.00000147     -1098.3766325343 -4.05E-07
  Decoupling Energy:                                               0.0674280755
  Recoupling Energy:                                              -0.0068207015
    23 OT DIIS     0.15E+00    1.9     0.00000146     -1098.3766329196 -3.85E-07
  Decoupling Energy:                                               0.0674276902
  Recoupling Energy:                                              -0.0068206929
    24 OT DIIS     0.15E+00    1.9     0.00000141     -1098.3766332140 -2.94E-07
  Decoupling Energy:                                               0.0674275611
  Recoupling Energy:                                              -0.0068206844
    25 OT DIIS     0.15E+00    1.9     0.00000132     -1098.3766335509 -3.37E-07
  Decoupling Energy:                                               0.0674271096
  Recoupling Energy:                                              -0.0068206806
    26 OT DIIS     0.15E+00    1.9     0.00000121     -1098.3766339170 -3.66E-07
  Decoupling Energy:                                               0.0674256583
  Recoupling Energy:                                              -0.0068206477
    27 OT DIIS     0.15E+00    1.9     0.00000117     -1098.3766341645 -2.48E-07
  Decoupling Energy:                                               0.0674255562
  Recoupling Energy:                                              -0.0068206517
    28 OT DIIS     0.15E+00    1.9     0.00000110     -1098.3766344853 -3.21E-07
  Decoupling Energy:                                               0.0674253778
  Recoupling Energy:                                              -0.0068206417
    29 OT DIIS     0.15E+00    1.9     0.00000107     -1098.3766347710 -2.86E-07
  Decoupling Energy:                                               0.0674249608
  Recoupling Energy:                                              -0.0068206323
    30 OT DIIS     0.15E+00    2.0     0.00000107     -1098.3766350575 -2.86E-07
  Decoupling Energy:                                               0.0674245015
  Recoupling Energy:                                              -0.0068206265
    31 OT DIIS     0.15E+00    1.9     0.00000107     -1098.3766353402 -2.83E-07
  Decoupling Energy:                                               0.0674245040
  Recoupling Energy:                                              -0.0068206233
    32 OT DIIS     0.15E+00    1.9     0.00000106     -1098.3766355440 -2.04E-07
  Decoupling Energy:                                               0.0674247391
  Recoupling Energy:                                              -0.0068206246
    33 OT DIIS     0.15E+00    1.9     0.00000103     -1098.3766358227 -2.79E-07
  Decoupling Energy:                                               0.0674248161
  Recoupling Energy:                                              -0.0068206269
    34 OT DIIS     0.15E+00    1.9     0.00000099     -1098.3766361322 -3.09E-07

  *** SCF run converged in    34 steps ***


  Electronic density on regular grids:       -654.0000005662       -0.0000005662
  Core density on regular grids:              654.9999999988       -0.0000000012
  Total charge density on r-space grids:        0.9999994326
  Total charge density g-space grids:           0.9999994326

  Overlap energy of the core charge distribution:               0.00004332465283
  Self energy of the core charge distribution:              -2459.11679630764229
  Core Hamiltonian energy:                                    750.78608054330186
  Hartree energy:                                            1002.45036695624731
  Exchange-correlation energy:                               -293.96930551315540
  QM/MM Electrostatic energy:                                 -98.52702513560884

  Total energy:                                             -1098.37663613220457
  Decoupling Energy:                                               0.0674242569
  Recoupling Energy:                                              -0.0068206125

 ENERGY| Total FORCE_EVAL ( QMMM ) energy [a.u.]:          -1447.997666804164965

 MD| ***************************************************************************
 MD| Step number                                                               1
 MD| Time [fs]                                                          1.000000
 MD| Conserved quantity [hartree]                            -0.124929046150E+04
 MD| ---------------------------------------------------------------------------
 MD|                                          Instantaneous             Averages
 MD| CPU time per MD step [s]                    259.969747           259.969747
 MD| Energy drift per atom [K]           0.115251040668E+02   0.000000000000E+00
 MD| Potential energy [hartree]         -0.144799766680E+04  -0.144799766680E+04
 MD| Total kinetic energy [hartree]      0.198707205306E+03   0.198707205306E+03
 MD| QM kinetic energy [hartree]         0.373153043355E+00   0.373153043355E+00
 MD| Total temperature [K]                       277.166865           277.166865
 MD| QM temperature [K]                          310.493467           310.493467
 MD| ***************************************************************************

  Translating the system in order to center the QM fragment in the QM box.

 Number of electrons:                                                        654
 Number of occupied orbitals:                                                327
 Number of molecular orbitals:                                               327

 Number of orbital functions:                                               2193
 Number of independent orbital functions:                                   2193

 Extrapolation method: ASPC


 SCF WAVEFUNCTION OPTIMIZATION

  ----------------------------------- OT ---------------------------------------
  Minimizer      : DIIS                : direct inversion
                                         in the iterative subspace
                                         using   7 DIIS vectors
                                         safer DIIS on
  Preconditioner : FULL_ALL            : diagonalization, state selective
  Precond_solver : DEFAULT
  stepsize       :    0.15000000                  energy_gap     :    0.08000000
  eps_taylor     :   0.10000E-15                  max_taylor     :             4
  ----------------------------------- OT ---------------------------------------

  Step     Update method      Time    Convergence         Total energy    Change
  ------------------------------------------------------------------------------
  Decoupling Energy:                                               0.0674205306
  Recoupling Energy:                                              -0.0068198161
     1 OT DIIS     0.15E+00    1.6     0.00014572     -1097.1103364615 -1.10E+03
  Decoupling Energy:                                               0.0673615838
  Recoupling Energy:                                              -0.0068179728
     2 OT DIIS     0.15E+00    1.9     0.00010792     -1097.1115292041 -1.19E-03
  Decoupling Energy:                                               0.0674463180
  Recoupling Energy:                                              -0.0068202485
     3 OT DIIS     0.15E+00    1.9     0.00014381     -1097.1115616225 -3.24E-05
  Decoupling Energy:                                               0.0673951253
  Recoupling Energy:                                              -0.0068187481
     4 OT DIIS     0.15E+00    1.9     0.00007266     -1097.1118081283 -2.47E-04
  Decoupling Energy:                                               0.0673973820
  Recoupling Energy:                                              -0.0068183636
     5 OT DIIS     0.15E+00    1.9     0.00003316     -1097.1118782794 -7.02E-05
  Decoupling Energy:                                               0.0674145655
  Recoupling Energy:                                              -0.0068193536
     6 OT DIIS     0.15E+00    1.9     0.00001297     -1097.1118941874 -1.59E-05
  Decoupling Energy:                                               0.0674003723
  Recoupling Energy:                                              -0.0068187634
     7 OT DIIS     0.15E+00    1.9     0.00000862     -1097.1118968262 -2.64E-06
  Decoupling Energy:                                               0.0674044565
  Recoupling Energy:                                              -0.0068187789
     8 OT DIIS     0.15E+00    1.9     0.00000655     -1097.1118982445 -1.42E-06
  Decoupling Energy:                                               0.0674089830
  Recoupling Energy:                                              -0.0068189439
     9 OT DIIS     0.15E+00    1.9     0.00000355     -1097.1118992679 -1.02E-06
  Decoupling Energy:                                               0.0674130145
  Recoupling Energy:                                              -0.0068189163
    10 OT DIIS     0.15E+00    1.9     0.00000299     -1097.1119006086 -1.34E-06
  Decoupling Energy:                                               0.0674166656
  Recoupling Energy:                                              -0.0068189348
    11 OT DIIS     0.15E+00    1.9     0.00000246     -1097.1119019410 -1.33E-06
  Decoupling Energy:                                               0.0674248279
  Recoupling Energy:                                              -0.0068189928
    12 OT DIIS     0.15E+00    1.9     0.00000218     -1097.1119031463 -1.21E-06
  Decoupling Energy:                                               0.0674287479
  Recoupling Energy:                                              -0.0068190100
    13 OT DIIS     0.15E+00    1.9     0.00000233     -1097.1119038212 -6.75E-07
  Decoupling Energy:                                               0.0674307995
  Recoupling Energy:                                              -0.0068190394
    14 OT DIIS     0.15E+00    1.9     0.00000193     -1097.1119042332 -4.12E-07
  Decoupling Energy:                                               0.0674333105
  Recoupling Energy:                                              -0.0068190179
    15 OT DIIS     0.15E+00    1.9     0.00000187     -1097.1119048096 -5.76E-07
  Decoupling Energy:                                               0.0674369946
  Recoupling Energy:                                              -0.0068190724
    16 OT DIIS     0.15E+00    1.9     0.00000189     -1097.1119052020 -3.92E-07
  Decoupling Energy:                                               0.0674389550
  Recoupling Energy:                                              -0.0068191139
    17 OT DIIS     0.15E+00    1.9     0.00000164     -1097.1119054908 -2.89E-07
  Decoupling Energy:                                               0.0674409891
  Recoupling Energy:                                              -0.0068190925
    18 OT DIIS     0.15E+00    1.9     0.00000138     -1097.1119060285 -5.38E-07
  Decoupling Energy:                                               0.0674426435
  Recoupling Energy:                                              -0.0068191222
    19 OT DIIS     0.15E+00    1.9     0.00000126     -1097.1119063943 -3.66E-07
  Decoupling Energy:                                               0.0674440514
  Recoupling Energy:                                              -0.0068191324
    20 OT DIIS     0.15E+00    1.9     0.00000118     -1097.1119068063 -4.12E-07
  Decoupling Energy:                                               0.0674441706
  Recoupling Energy:                                              -0.0068191309
    21 OT DIIS     0.15E+00    1.9     0.00000121     -1097.1119071187 -3.12E-07
  Decoupling Energy:                                               0.0674437346
  Recoupling Energy:                                              -0.0068191341
    22 OT DIIS     0.15E+00    1.9     0.00000118     -1097.1119073275 -2.09E-07
  Decoupling Energy:                                               0.0674427566
  Recoupling Energy:                                              -0.0068191143
    23 OT DIIS     0.15E+00    1.9     0.00000113     -1097.1119076482 -3.21E-07
  Decoupling Energy:                                               0.0674426496
  Recoupling Energy:                                              -0.0068191253
    24 OT DIIS     0.15E+00    1.9     0.00000115     -1097.1119078740 -2.26E-07
  Decoupling Energy:                                               0.0674417369
  Recoupling Energy:                                              -0.0068191243
    25 OT DIIS     0.15E+00    1.9     0.00000110     -1097.1119080804 -2.06E-07
  Decoupling Energy:                                               0.0674403546
  Recoupling Energy:                                              -0.0068190948
    26 OT DIIS     0.15E+00    1.9     0.00000101     -1097.1119083720 -2.92E-07
  Decoupling Energy:                                               0.0674394407
  Recoupling Energy:                                              -0.0068191001
    27 OT DIIS     0.15E+00    1.9     0.00000111     -1097.1119086427 -2.71E-07
  Decoupling Energy:                                               0.0674391398
  Recoupling Energy:                                              -0.0068190966
    28 OT DIIS     0.15E+00    1.9     0.00000097     -1097.1119086860 -4.33E-08

  *** SCF run converged in    28 steps ***


  Electronic density on regular grids:       -654.0000002644       -0.0000002644
  Core density on regular grids:              654.9999999993       -0.0000000007
  Total charge density on r-space grids:        0.9999997349
  Total charge density g-space grids:           0.9999997349

  Overlap energy of the core charge distribution:               0.00004731787346
  Self energy of the core charge distribution:              -2459.11679630764229
  Core Hamiltonian energy:                                    750.43687560140563
  Hartree energy:                                            1002.71672003164531
  Exchange-correlation energy:                               -293.87542429629690
  QM/MM Electrostatic energy:                                 -97.27333103299716

  Total energy:                                             -1097.11190868601216
  Decoupling Energy:                                               0.0674376804
  Recoupling Energy:                                              -0.0068190815

 ENERGY| Total FORCE_EVAL ( QMMM ) energy [a.u.]:          -1445.975610758165658

 MD| ***************************************************************************
 MD| Step number                                                               2
 MD| Time [fs]                                                          2.000000
 MD| Conserved quantity [hartree]                            -0.125000600922E+04
 MD| ---------------------------------------------------------------------------
 MD|                                          Instantaneous             Averages
 MD| CPU time per MD step [s]                    145.923112           202.946430
 MD| Energy drift per atom [K]           0.100279907309E+02   0.501399536546E+01
 MD| Potential energy [hartree]         -0.144597561076E+04  -0.144698663878E+04
 MD| Total kinetic energy [hartree]      0.195969601537E+03   0.197338403421E+03
 MD| QM kinetic energy [hartree]         0.375001490723E+00   0.374077267039E+00
 MD| Total temperature [K]                       273.348316           275.257590
 MD| QM temperature [K]                          312.031525           311.262496
 MD| ***************************************************************************

  Translating the system in order to center the QM fragment in the QM box.

 Number of electrons:                                                        654
 Number of occupied orbitals:                                                327
 Number of molecular orbitals:                                               327

 Number of orbital functions:                                               2193
 Number of independent orbital functions:                                   2193

 Extrapolation method: ASPC


 SCF WAVEFUNCTION OPTIMIZATION

  ----------------------------------- OT ---------------------------------------
  Minimizer      : DIIS                : direct inversion
                                         in the iterative subspace
                                         using   7 DIIS vectors
                                         safer DIIS on
  Preconditioner : FULL_ALL            : diagonalization, state selective
  Precond_solver : DEFAULT
  stepsize       :    0.15000000                  energy_gap     :    0.08000000
  eps_taylor     :   0.10000E-15                  max_taylor     :             4
  ----------------------------------- OT ---------------------------------------

  Step     Update method      Time    Convergence         Total energy    Change
  ------------------------------------------------------------------------------
  Decoupling Energy:                                               0.0675622524
  Recoupling Energy:                                              -0.0068195802
     1 OT DIIS     0.15E+00    1.6     0.00011093     -1095.1861466882 -1.10E+03
  Decoupling Energy:                                               0.0674785117
  Recoupling Energy:                                              -0.0068159913
     2 OT DIIS     0.15E+00    1.9     0.00009300     -1095.1868084776 -6.62E-04
  Decoupling Energy:                                               0.0675327526
  Recoupling Energy:                                              -0.0068197820
     3 OT DIIS     0.15E+00    1.9     0.00012347     -1095.1868080767  4.01E-07
  Decoupling Energy:                                               0.0675665784
  Recoupling Energy:                                              -0.0068189448
     4 OT DIIS     0.15E+00    1.9     0.00005734     -1095.1869836958 -1.76E-04
  Decoupling Energy:                                               0.0675111074
  Recoupling Energy:                                              -0.0068173095
     5 OT DIIS     0.15E+00    1.9     0.00003137     -1095.1870199488 -3.63E-05
  Decoupling Energy:                                               0.0675177841
  Recoupling Energy:                                              -0.0068179956
     6 OT DIIS     0.15E+00    1.9     0.00000930     -1095.1870339713 -1.40E-05
  Decoupling Energy:                                               0.0675231586
  Recoupling Energy:                                              -0.0068179332
     7 OT DIIS     0.15E+00    1.9     0.00000753     -1095.1870350762 -1.10E-06
  Decoupling Energy:                                               0.0675222721
  Recoupling Energy:                                              -0.0068179002
     8 OT DIIS     0.15E+00    1.9     0.00000372     -1095.1870359889 -9.13E-07
  Decoupling Energy:                                               0.0675212539
  Recoupling Energy:                                              -0.0068179240
     9 OT DIIS     0.15E+00    1.9     0.00000224     -1095.1870364365 -4.48E-07
  Decoupling Energy:                                               0.0675214893
  Recoupling Energy:                                              -0.0068178833
    10 OT DIIS     0.15E+00    1.9     0.00000190     -1095.1870369226 -4.86E-07
  Decoupling Energy:                                               0.0675235300
  Recoupling Energy:                                              -0.0068179099
    11 OT DIIS     0.15E+00    1.9     0.00000164     -1095.1870374838 -5.61E-07
  Decoupling Energy:                                               0.0675238231
  Recoupling Energy:                                              -0.0068178718
    12 OT DIIS     0.15E+00    1.9     0.00000155     -1095.1870379402 -4.56E-07
  Decoupling Energy:                                               0.0675250583
  Recoupling Energy:                                              -0.0068178817
    13 OT DIIS     0.15E+00    1.9     0.00000160     -1095.1870382555 -3.15E-07
  Decoupling Energy:                                               0.0675267554
  Recoupling Energy:                                              -0.0068179017
    14 OT DIIS     0.15E+00    1.9     0.00000132     -1095.1870384551 -2.00E-07
  Decoupling Energy:                                               0.0675276905
  Recoupling Energy:                                              -0.0068178786
    15 OT DIIS     0.15E+00    1.9     0.00000125     -1095.1870386899 -2.35E-07
  Decoupling Energy:                                               0.0675286995
  Recoupling Energy:                                              -0.0068178890
    16 OT DIIS     0.15E+00    2.0     0.00000122     -1095.1870388957 -2.06E-07
  Decoupling Energy:                                               0.0675295299
  Recoupling Energy:                                              -0.0068179008
    17 OT DIIS     0.15E+00    1.9     0.00000108     -1095.1870390404 -1.45E-07
  Decoupling Energy:                                               0.0675308742
  Recoupling Energy:                                              -0.0068178892
    18 OT DIIS     0.15E+00    1.9     0.00000096     -1095.1870392997 -2.59E-07

  *** SCF run converged in    18 steps ***


  Electronic density on regular grids:       -654.0000000154       -0.0000000154
  Core density on regular grids:              654.9999999996       -0.0000000004
  Total charge density on r-space grids:        0.9999999842
  Total charge density g-space grids:           0.9999999842

  Overlap energy of the core charge distribution:               0.00004961119866
  Self energy of the core charge distribution:              -2459.11679630764229
  Core Hamiltonian energy:                                    750.02601503987091
  Hartree energy:                                            1003.02382732567764
  Exchange-correlation energy:                               -293.76774611385764
  QM/MM Electrostatic energy:                                 -95.35238885494326

  Total energy:                                             -1095.18703929969593
  Decoupling Energy:                                               0.0675323060
  Recoupling Energy:                                              -0.0068179041

 ENERGY| Total FORCE_EVAL ( QMMM ) energy [a.u.]:          -1460.415579227981652

 MD| ***************************************************************************
 MD| Step number                                                               3
 MD| Time [fs]                                                          3.000000
 MD| Conserved quantity [hartree]                            -0.125224647449E+04
 MD| ---------------------------------------------------------------------------
 MD|                                          Instantaneous             Averages
 MD| CPU time per MD step [s]                    126.849062           177.580640
 MD| Energy drift per atom [K]           0.534035029626E+01   0.512278034240E+01
 MD| Potential energy [hartree]         -0.146041557923E+04  -0.145146295226E+04
 MD| Total kinetic energy [hartree]      0.208169104734E+03   0.200948637192E+03
 MD| QM kinetic energy [hartree]         0.389730760513E+00   0.379295098197E+00
 MD| Total temperature [K]                       290.364801           280.293327
 MD| QM temperature [K]                          324.287467           315.604153
 MD| ***************************************************************************

  Translating the system in order to center the QM fragment in the QM box.

 Number of electrons:                                                        654
 Number of occupied orbitals:                                                327
 Number of molecular orbitals:                                               327

 Number of orbital functions:                                               2193
 Number of independent orbital functions:                                   2193

 Extrapolation method: ASPC


 SCF WAVEFUNCTION OPTIMIZATION

  ----------------------------------- OT ---------------------------------------
  Minimizer      : DIIS                : direct inversion
                                         in the iterative subspace
                                         using   7 DIIS vectors
                                         safer DIIS on
  Preconditioner : FULL_ALL            : diagonalization, state selective
  Precond_solver : DEFAULT
  stepsize       :    0.15000000                  energy_gap     :    0.08000000
  eps_taylor     :   0.10000E-15                  max_taylor     :             4
  ----------------------------------- OT ---------------------------------------

  Step     Update method      Time    Convergence         Total energy    Change
  ------------------------------------------------------------------------------
  Decoupling Energy:                                               0.0677323930
  Recoupling Energy:                                              -0.0068195660
     1 OT DIIS     0.15E+00    1.6     0.00008441     -1092.7816160470 -1.09E+03
  Decoupling Energy:                                               0.0676099378
  Recoupling Energy:                                              -0.0068140590
     2 OT DIIS     0.15E+00    2.0     0.00010047     -1092.7819061841 -2.90E-04
  Decoupling Energy:                                               0.0676500085
  Recoupling Energy:                                              -0.0068178732
     3 OT DIIS     0.15E+00    1.9     0.00009124     -1092.7819731838 -6.70E-05
  Decoupling Energy:                                               0.0677054402
  Recoupling Energy:                                              -0.0068185885
     4 OT DIIS     0.15E+00    1.9     0.00005139     -1092.7820546988 -8.15E-05
  Decoupling Energy:                                               0.0676497439
  Recoupling Energy:                                              -0.0068162209
     5 OT DIIS     0.15E+00    1.9     0.00002272     -1092.7820881532 -3.35E-05
  Decoupling Energy:                                               0.0676457099
  Recoupling Energy:                                              -0.0068166245
     6 OT DIIS     0.15E+00    1.9     0.00000776     -1092.7820962873 -8.13E-06
  Decoupling Energy:                                               0.0676514920
  Recoupling Energy:                                              -0.0068166770
     7 OT DIIS     0.15E+00    1.9     0.00000578     -1092.7820972225 -9.35E-07
  Decoupling Energy:                                               0.0676485970
  Recoupling Energy:                                              -0.0068166114
     8 OT DIIS     0.15E+00    1.9     0.00000323     -1092.7820978239 -6.01E-07
  Decoupling Energy:                                               0.0676459339
  Recoupling Energy:                                              -0.0068165556
     9 OT DIIS     0.15E+00    1.9     0.00000214     -1092.7820982502 -4.26E-07
  Decoupling Energy:                                               0.0676450006
  Recoupling Energy:                                              -0.0068165078
    10 OT DIIS     0.15E+00    1.9     0.00000195     -1092.7820987633 -5.13E-07
  Decoupling Energy:                                               0.0676425810
  Recoupling Energy:                                              -0.0068164290
    11 OT DIIS     0.15E+00    1.9     0.00000174     -1092.7820994898 -7.27E-07
  Decoupling Energy:                                               0.0676412917
  Recoupling Energy:                                              -0.0068163476
    12 OT DIIS     0.15E+00    1.9     0.00000182     -1092.7821001677 -6.78E-07
  Decoupling Energy:                                               0.0676400660
  Recoupling Energy:                                              -0.0068162940
    13 OT DIIS     0.15E+00    1.9     0.00000171     -1092.7821005768 -4.09E-07
  Decoupling Energy:                                               0.0676404385
  Recoupling Energy:                                              -0.0068162777
    14 OT DIIS     0.15E+00    2.0     0.00000133     -1092.7821010000 -4.23E-07
  Decoupling Energy:                                               0.0676413265
  Recoupling Energy:                                              -0.0068162367
    15 OT DIIS     0.15E+00    1.9     0.00000135     -1092.7821013081 -3.08E-07
  Decoupling Energy:                                               0.0676420428
  Recoupling Energy:                                              -0.0068162325
    16 OT DIIS     0.15E+00    2.0     0.00000130     -1092.7821015827 -2.75E-07
  Decoupling Energy:                                               0.0676427491
  Recoupling Energy:                                              -0.0068162339
    17 OT DIIS     0.15E+00    2.0     0.00000112     -1092.7821017742 -1.92E-07
  Decoupling Energy:                                               0.0676445187
  Recoupling Energy:                                              -0.0068162249
    18 OT DIIS     0.15E+00    1.9     0.00000101     -1092.7821020715 -2.97E-07
  Decoupling Energy:                                               0.0676462894
  Recoupling Energy:                                              -0.0068162329
    19 OT DIIS     0.15E+00    1.9     0.00000095     -1092.7821023299 -2.58E-07

  *** SCF run converged in    19 steps ***


  Electronic density on regular grids:       -653.9999998459        0.0000001541
  Core density on regular grids:              654.9999999994       -0.0000000006
  Total charge density on r-space grids:        1.0000001536
  Total charge density g-space grids:           1.0000001536

  Overlap energy of the core charge distribution:               0.00004753855296
  Self energy of the core charge distribution:              -2459.11679630764229
  Core Hamiltonian energy:                                    749.60409395239390
  Hartree energy:                                            1003.32503221006834
  Exchange-correlation energy:                               -293.66214511356770
  QM/MM Electrostatic energy:                                 -92.93233460965666

  Total energy:                                             -1092.78210232985157
  Decoupling Energy:                                               0.0676480336
  Recoupling Energy:                                              -0.0068162348

 ENERGY| Total FORCE_EVAL ( QMMM ) energy [a.u.]:          -1464.856518404572398

 MD| ***************************************************************************
 MD| Step number                                                               4
 MD| Time [fs]                                                          4.000000
 MD| Conserved quantity [hartree]                            -0.124942851009E+04
 MD| ---------------------------------------------------------------------------
 MD|                                          Instantaneous             Averages
 MD| CPU time per MD step [s]                    128.921084           165.415751
 MD| Energy drift per atom [K]           0.112362702425E+02   0.665115281743E+01
 MD| Potential energy [hartree]         -0.146485651840E+04  -0.145481134380E+04
 MD| Total kinetic energy [hartree]      0.215428008316E+03   0.204568479973E+03
 MD| QM kinetic energy [hartree]         0.424321100154E+00   0.390551598686E+00
 MD| Total temperature [K]                       300.489887           285.342467
 MD| QM temperature [K]                          353.069423           324.970471
 MD| ***************************************************************************

  Translating the system in order to center the QM fragment in the QM box.

 Number of electrons:                                                        654
 Number of occupied orbitals:                                                327
 Number of molecular orbitals:                                               327

 Number of orbital functions:                                               2193
 Number of independent orbital functions:                                   2193

 Extrapolation method: ASPC


 SCF WAVEFUNCTION OPTIMIZATION

  ----------------------------------- OT ---------------------------------------
  Minimizer      : DIIS                : direct inversion
                                         in the iterative subspace
                                         using   7 DIIS vectors
                                         safer DIIS on
  Preconditioner : FULL_ALL            : diagonalization, state selective
  Precond_solver : DEFAULT
  stepsize       :    0.15000000                  energy_gap     :    0.08000000
  eps_taylor     :   0.10000E-15                  max_taylor     :             4
  ----------------------------------- OT ---------------------------------------

  Step     Update method      Time    Convergence         Total energy    Change
  ------------------------------------------------------------------------------
  Decoupling Energy:                                               0.0678208131
  Recoupling Energy:                                              -0.0068165618
     1 OT DIIS     0.15E+00    1.6     0.00006562     -1090.0797269227 -1.09E+03
  Decoupling Energy:                                               0.0677002994
  Recoupling Energy:                                              -0.0068117163
     2 OT DIIS     0.15E+00    2.0     0.00011304     -1090.0798084452 -8.15E-05
  Decoupling Energy:                                               0.0677158892
  Recoupling Energy:                                              -0.0068137633
     3 OT DIIS     0.15E+00    1.9     0.00006263     -1090.0799291288 -1.21E-04
  Decoupling Energy:                                               0.0677801736
  Recoupling Energy:                                              -0.0068154048
     4 OT DIIS     0.15E+00    1.9     0.00003496     -1090.0799691310 -4.00E-05
  Decoupling Energy:                                               0.0677327718
  Recoupling Energy:                                              -0.0068134006
     5 OT DIIS     0.15E+00    1.9     0.00001688     -1090.0799880733 -1.89E-05
  Decoupling Energy:                                               0.0677241747
  Recoupling Energy:                                              -0.0068136571
     6 OT DIIS     0.15E+00    1.9     0.00000664     -1090.0799929416 -4.87E-06
  Decoupling Energy:                                               0.0677294562
  Recoupling Energy:                                              -0.0068136689
     7 OT DIIS     0.15E+00    1.9     0.00000470     -1090.0799937965 -8.55E-07
  Decoupling Energy:                                               0.0677264131
  Recoupling Energy:                                              -0.0068136077
     8 OT DIIS     0.15E+00    1.9     0.00000327     -1090.0799943738 -5.77E-07
  Decoupling Energy:                                               0.0677237141
  Recoupling Energy:                                              -0.0068135726
     9 OT DIIS     0.15E+00    1.9     0.00000237     -1090.0799948521 -4.78E-07
  Decoupling Energy:                                               0.0677209757
  Recoupling Energy:                                              -0.0068134905
    10 OT DIIS     0.15E+00    2.0     0.00000220     -1090.0799955877 -7.36E-07
  Decoupling Energy:                                               0.0677178846
  Recoupling Energy:                                              -0.0068134442
    11 OT DIIS     0.15E+00    1.9     0.00000203     -1090.0799964097 -8.22E-07
  Decoupling Energy:                                               0.0677156590
  Recoupling Energy:                                              -0.0068133761
    12 OT DIIS     0.15E+00    1.9     0.00000210     -1090.0799969995 -5.90E-07
  Decoupling Energy:                                               0.0677133836
  Recoupling Energy:                                              -0.0068133253
    13 OT DIIS     0.15E+00    1.9     0.00000167     -1090.0799974551 -4.56E-07
  Decoupling Energy:                                               0.0677122541
  Recoupling Energy:                                              -0.0068133122
    14 OT DIIS     0.15E+00    1.9     0.00000155     -1090.0799979463 -4.91E-07
  Decoupling Energy:                                               0.0677122592
  Recoupling Energy:                                              -0.0068132795
    15 OT DIIS     0.15E+00    1.9     0.00000160     -1090.0799983540 -4.08E-07
  Decoupling Energy:                                               0.0677114733
  Recoupling Energy:                                              -0.0068132662
    16 OT DIIS     0.15E+00    1.9     0.00000158     -1090.0799987792 -4.25E-07
  Decoupling Energy:                                               0.0677109850
  Recoupling Energy:                                              -0.0068132612
    17 OT DIIS     0.15E+00    2.0     0.00000144     -1090.0799991548 -3.76E-07
  Decoupling Energy:                                               0.0677109781
  Recoupling Energy:                                              -0.0068132359
    18 OT DIIS     0.15E+00    1.9     0.00000133     -1090.0799997661 -6.11E-07
  Decoupling Energy:                                               0.0677116335
  Recoupling Energy:                                              -0.0068132448
    19 OT DIIS     0.15E+00    1.9     0.00000130     -1090.0800003529 -5.87E-07
  Decoupling Energy:                                               0.0677121551
  Recoupling Energy:                                              -0.0068132356
    20 OT DIIS     0.15E+00    1.9     0.00000130     -1090.0800008043 -4.51E-07
  Decoupling Energy:                                               0.0677127369
  Recoupling Energy:                                              -0.0068132367
    21 OT DIIS     0.15E+00    1.9     0.00000121     -1090.0800012836 -4.79E-07
  Decoupling Energy:                                               0.0677144372
  Recoupling Energy:                                              -0.0068132667
    22 OT DIIS     0.15E+00    2.0     0.00000114     -1090.0800018273 -5.44E-07
  Decoupling Energy:                                               0.0677163234
  Recoupling Energy:                                              -0.0068132719
    23 OT DIIS     0.15E+00    1.9     0.00000118     -1090.0800023174 -4.90E-07
  Decoupling Energy:                                               0.0677176642
  Recoupling Energy:                                              -0.0068132997
    24 OT DIIS     0.15E+00    1.9     0.00000116     -1090.0800027126 -3.95E-07
  Decoupling Energy:                                               0.0677195100
  Recoupling Energy:                                              -0.0068133355
    25 OT DIIS     0.15E+00    1.9     0.00000110     -1090.0800031008 -3.88E-07
  Decoupling Energy:                                               0.0677215991
  Recoupling Energy:                                              -0.0068133565
    26 OT DIIS     0.15E+00    1.9     0.00000101     -1090.0800035238 -4.23E-07
  Decoupling Energy:                                               0.0677242408
  Recoupling Energy:                                              -0.0068134069
    27 OT DIIS     0.15E+00    1.9     0.00000100     -1090.0800039629 -4.39E-07

  *** SCF run converged in    27 steps ***


  Electronic density on regular grids:       -653.9999997124        0.0000002876
  Core density on regular grids:              654.9999999998       -0.0000000002
  Total charge density on r-space grids:        1.0000002874
  Total charge density g-space grids:           1.0000002874

  Overlap energy of the core charge distribution:               0.00004453868046
  Self energy of the core charge distribution:              -2459.11679630764229
  Core Hamiltonian energy:                                    749.25824785362965
  Hartree energy:                                            1003.56801629960557
  Exchange-correlation energy:                               -293.58224561579038
  QM/MM Electrostatic energy:                                 -90.20727073140065

  Total energy:                                             -1090.08000396291777
  Decoupling Energy:                                               0.0677258842
  Recoupling Energy:                                              -0.0068134276

 ENERGY| Total FORCE_EVAL ( QMMM ) energy [a.u.]:          -1484.986904249080453

 MD| ***************************************************************************
 MD| Step number                                                               5
 MD| Time [fs]                                                          5.000000
 MD| Conserved quantity [hartree]                            -0.125423515603E+04
 MD| ---------------------------------------------------------------------------
 MD|                                          Instantaneous             Averages
 MD| CPU time per MD step [s]                    144.512328           161.235067
 MD| Energy drift per atom [K]           0.117950740871E+01   0.555682373569E+01
 MD| Potential energy [hartree]         -0.148498690425E+04  -0.146084645589E+04
 MD| Total kinetic energy [hartree]      0.230751748216E+03   0.209805133622E+03
 MD| QM kinetic energy [hartree]         0.464769398457E+00   0.405395158640E+00
 MD| Total temperature [K]                       321.864214           292.646816
 MD| QM temperature [K]                          386.725674           337.321511
 MD| ***************************************************************************

  Translating the system in order to center the QM fragment in the QM box.

 Number of electrons:                                                        654
 Number of occupied orbitals:                                                327
 Number of molecular orbitals:                                               327

 Number of orbital functions:                                               2193
 Number of independent orbital functions:                                   2193

 Extrapolation method: ASPC


 SCF WAVEFUNCTION OPTIMIZATION

  ----------------------------------- OT ---------------------------------------
  Minimizer      : DIIS                : direct inversion
                                         in the iterative subspace
                                         using   7 DIIS vectors
                                         safer DIIS on
  Preconditioner : FULL_ALL            : diagonalization, state selective
  Precond_solver : DEFAULT
  stepsize       :    0.15000000                  energy_gap     :    0.08000000
  eps_taylor     :   0.10000E-15                  max_taylor     :             4
  ----------------------------------- OT ---------------------------------------

  Step     Update method      Time    Convergence         Total energy    Change
  ------------------------------------------------------------------------------
  Decoupling Energy:                                               0.0679524997
  Recoupling Energy:                                              -0.0068149242
     1 OT DIIS     0.15E+00    1.6     0.00006972     -1087.2337804804 -1.09E+03
  Decoupling Energy:                                               0.0676946818
  Recoupling Energy:                                              -0.0068077962
     2 OT DIIS     0.15E+00    1.9     0.00010695     -1087.2338423757 -6.19E-05
  Decoupling Energy:                                               0.0677619410
  Recoupling Energy:                                              -0.0068111847
     3 OT DIIS     0.15E+00    1.9     0.00005547     -1087.2339905686 -1.48E-04
  Decoupling Energy:                                               0.0678058133
  Recoupling Energy:                                              -0.0068115926
     4 OT DIIS     0.15E+00    1.9     0.00004947     -1087.2340077199 -1.72E-05
  Decoupling Energy:                                               0.0677614595
  Recoupling Energy:                                              -0.0068103990
     5 OT DIIS     0.15E+00    1.9     0.00001709     -1087.2340385540 -3.08E-05
  Decoupling Energy:                                               0.0677364383
  Recoupling Energy:                                              -0.0068102885
     6 OT DIIS     0.15E+00    2.0     0.00000739     -1087.2340440527 -5.50E-06
  Decoupling Energy:                                               0.0677343587
  Recoupling Energy:                                              -0.0068100966
     7 OT DIIS     0.15E+00    1.9     0.00000389     -1087.2340454673 -1.41E-06
  Decoupling Energy:                                               0.0677286257
  Recoupling Energy:                                              -0.0068100316
     8 OT DIIS     0.15E+00    2.0     0.00000328     -1087.2340462824 -8.15E-07
  Decoupling Energy:                                               0.0677222877
  Recoupling Energy:                                              -0.0068099274
     9 OT DIIS     0.15E+00    2.0     0.00000303     -1087.2340468442 -5.62E-07
  Decoupling Energy:                                               0.0677164598
  Recoupling Energy:                                              -0.0068097712
    10 OT DIIS     0.15E+00    1.9     0.00000279     -1087.2340475458 -7.02E-07
  Decoupling Energy:                                               0.0677043972
  Recoupling Energy:                                              -0.0068095680
    11 OT DIIS     0.15E+00    1.9     0.00000221     -1087.2340487255 -1.18E-06
  Decoupling Energy:                                               0.0676961850
  Recoupling Energy:                                              -0.0068093886
    12 OT DIIS     0.15E+00    1.9     0.00000210     -1087.2340496367 -9.11E-07
  Decoupling Energy:                                               0.0676902559
  Recoupling Energy:                                              -0.0068092535
    13 OT DIIS     0.15E+00    1.9     0.00000192     -1087.2340501465 -5.10E-07
  Decoupling Energy:                                               0.0676864519
  Recoupling Energy:                                              -0.0068091620
    14 OT DIIS     0.15E+00    2.0     0.00000178     -1087.2340506475 -5.01E-07
  Decoupling Energy:                                               0.0676853473
  Recoupling Energy:                                              -0.0068091204
    15 OT DIIS     0.15E+00    1.9     0.00000161     -1087.2340510045 -3.57E-07
  Decoupling Energy:                                               0.0676828175
  Recoupling Energy:                                              -0.0068090256
    16 OT DIIS     0.15E+00    1.9     0.00000152     -1087.2340516552 -6.51E-07
  Decoupling Energy:                                               0.0676805720
  Recoupling Energy:                                              -0.0068089520
    17 OT DIIS     0.15E+00    1.9     0.00000160     -1087.2340520580 -4.03E-07
  Decoupling Energy:                                               0.0676798267
  Recoupling Energy:                                              -0.0068088908
    18 OT DIIS     0.15E+00    1.9     0.00000148     -1087.2340525059 -4.48E-07
  Decoupling Energy:                                               0.0676789178
  Recoupling Energy:                                              -0.0068088429
    19 OT DIIS     0.15E+00    1.9     0.00000131     -1087.2340530334 -5.27E-07
  Decoupling Energy:                                               0.0676787750
  Recoupling Energy:                                              -0.0068087814
    20 OT DIIS     0.15E+00    1.9     0.00000123     -1087.2340534937 -4.60E-07
  Decoupling Energy:                                               0.0676784952
  Recoupling Energy:                                              -0.0068087302
    21 OT DIIS     0.15E+00    1.9     0.00000125     -1087.2340539690 -4.75E-07
  Decoupling Energy:                                               0.0676790100
  Recoupling Energy:                                              -0.0068087056
    22 OT DIIS     0.15E+00    1.9     0.00000118     -1087.2340543320 -3.63E-07
  Decoupling Energy:                                               0.0676802068
  Recoupling Energy:                                              -0.0068086920
    23 OT DIIS     0.15E+00    1.9     0.00000113     -1087.2340546721 -3.40E-07
  Decoupling Energy:                                               0.0676814565
  Recoupling Energy:                                              -0.0068086616
    24 OT DIIS     0.15E+00    1.9     0.00000105     -1087.2340551269 -4.55E-07
  Decoupling Energy:                                               0.0676823748
  Recoupling Energy:                                              -0.0068086526
    25 OT DIIS     0.15E+00    1.9     0.00000108     -1087.2340554132 -2.86E-07
  Decoupling Energy:                                               0.0676837760
  Recoupling Energy:                                              -0.0068086528
    26 OT DIIS     0.15E+00    1.9     0.00000103     -1087.2340556602 -2.47E-07
  Decoupling Energy:                                               0.0676852006
  Recoupling Energy:                                              -0.0068086612
    27 OT DIIS     0.15E+00    1.9     0.00000097     -1087.2340559483 -2.88E-07

  *** SCF run converged in    27 steps ***


  Electronic density on regular grids:       -653.9999994657        0.0000005343
  Core density on regular grids:              654.9999999992       -0.0000000008
  Total charge density on r-space grids:        1.0000005336
  Total charge density g-space grids:           1.0000005336

  Overlap energy of the core charge distribution:               0.00004427892315
  Self energy of the core charge distribution:              -2459.11679630764229
  Core Hamiltonian energy:                                    749.05689524319587
  Hartree energy:                                            1003.72158398331305
  Exchange-correlation energy:                               -293.54327160965647
  QM/MM Electrostatic energy:                                 -87.35251153641302

  Total energy:                                             -1087.23405594827955
  Decoupling Energy:                                               0.0676866101
  Recoupling Energy:                                              -0.0068086545

 ENERGY| Total FORCE_EVAL ( QMMM ) energy [a.u.]:          -1466.498224915367700

 MD| ***************************************************************************
 MD| Step number                                                               6
 MD| Time [fs]                                                          6.000000
 MD| Conserved quantity [hartree]                            -0.125088336703E+04
 MD| ---------------------------------------------------------------------------
 MD|                                          Instantaneous             Averages
 MD| CPU time per MD step [s]                    144.256843           158.405363
 MD| Energy drift per atom [K]           0.819232830069E+01   0.599607449652E+01
 MD| Potential energy [hartree]         -0.146649822492E+04  -0.146178841739E+04
 MD| Total kinetic energy [hartree]      0.215614857888E+03   0.210773421000E+03
 MD| QM kinetic energy [hartree]         0.488029978298E+00   0.419167628583E+00
 MD| Total temperature [K]                       300.750514           293.997433
 MD| QM temperature [K]                          406.080355           348.781318
 MD| ***************************************************************************

 -------------------------------------------------------------------------------
 -                                                                             -
 -                                DBCSR STATISTICS                             -
 -                                                                             -
 -------------------------------------------------------------------------------
 COUNTER                                    TOTAL       BLAS       SMM       ACC
 flops     5 x     7 x     7               469910       0.0%    100.0%      0.0%
 flops     7 x     7 x     7               615342       0.0%    100.0%      0.0%
 flops    13 x     7 x     7              1034488       0.0%    100.0%      0.0%
 flops   103 x     7 x     7              7873320       0.0%    100.0%      0.0%
 flops    77 x     7 x     7             11771760       0.0%    100.0%      0.0%
 flops    82 x     7 x     7             12536160       0.0%    100.0%      0.0%
 flops    85 x     7 x     7             12994800       0.0%    100.0%      0.0%
 flops    87 x     7 x     7             13300560       0.0%    100.0%      0.0%
 flops    95 x     7 x     7             14523600       0.0%    100.0%      0.0%
 flops   113 x     7 x     7             17275440       0.0%    100.0%      0.0%
 flops    72 x     7 x     7             22014720       0.0%    100.0%      0.0%
 flops   108 x     7 x     7             24766560       0.0%    100.0%      0.0%
 flops     7 x     7 x    32             28129920       0.0%    100.0%      0.0%
 flops     7 x    32 x     7             28129920       0.0%    100.0%      0.0%
 flops    32 x     7 x     7             28129920       0.0%    100.0%      0.0%
 flops   100 x     7 x     7             30576000       0.0%    100.0%      0.0%
 flops     7 x     7 x   180             33392520       0.0%    100.0%      0.0%
 flops     7 x     7 x   182             45018064       0.0%    100.0%      0.0%
 flops     7 x     7 x   185             57200150       0.0%    100.0%      0.0%
 flops     5 x    32 x    32             98201600       0.0%    100.0%      0.0%
 flops    13 x    32 x    32            216186880       0.0%    100.0%      0.0%
 flops   103 x     7 x   180            253849680       0.0%    100.0%      0.0%
 flops   103 x     7 x   182            342226976       0.0%    100.0%      0.0%
 flops   103 x     7 x    32            359923200       0.0%    100.0%      0.0%
[...]
 flops   103 x    32 x   185          19878176000       0.0%    100.0%      0.0%
 flops    95 x    32 x   180          21406464000       0.0%    100.0%      0.0%
 flops    77 x    32 x   182          23391047680       0.0%    100.0%      0.0%
 flops    77 x    32 x    32          24600576000       0.0%    100.0%      0.0%
 flops    82 x    32 x   182          24909946880       0.0%    100.0%      0.0%
 flops   113 x    32 x   180          25462425600       0.0%    100.0%      0.0%
 flops     5 x     5 x    32          25712160000       0.0%    100.0%      0.0%
 flops    85 x    32 x   182          25821286400       0.0%    100.0%      0.0%
 flops    82 x    32 x    32          26198016000       0.0%    100.0%      0.0%
 flops    87 x    32 x   182          26428846080       0.0%    100.0%      0.0%
 flops    85 x    32 x    32          27156480000       0.0%    100.0%      0.0%
 flops    87 x    32 x    32          27795456000       0.0%    100.0%      0.0%
 flops    95 x    32 x   182          28859084800       0.0%    100.0%      0.0%
 flops    77 x    32 x   185          29720768000       0.0%    100.0%      0.0%
 flops    95 x    32 x    32          30351360000       0.0%    100.0%      0.0%
 flops    82 x    32 x   185          31650688000       0.0%    100.0%      0.0%
 flops    72 x    32 x   180          32447692800       0.0%    100.0%      0.0%
 flops    85 x    32 x   185          32808640000       0.0%    100.0%      0.0%
 flops    87 x    32 x   185          33580608000       0.0%    100.0%      0.0%
 flops   113 x    32 x   182          34327121920       0.0%    100.0%      0.0%
 flops   113 x    32 x    32          36102144000       0.0%    100.0%      0.0%
 flops   108 x    32 x   180          36503654400       0.0%    100.0%      0.0%
 flops    95 x    32 x   185          36668480000       0.0%    100.0%      0.0%
 flops   113 x    32 x   185          43616192000       0.0%    100.0%      0.0%
 flops    72 x    32 x   182          43744296960       0.0%    100.0%      0.0%
 flops   100 x    32 x   180          45066240000       0.0%    100.0%      0.0%
 flops    72 x    32 x    32          46006272000       0.0%    100.0%      0.0%
 flops   108 x    32 x   182          49212334080       0.0%    100.0%      0.0%
 flops   108 x    32 x    32          51757056000       0.0%    100.0%      0.0%
 flops    72 x    32 x   185          55581696000       0.0%    100.0%      0.0%
 flops    13 x     5 x    32          56123392000       0.0%    100.0%      0.0%
 flops     5 x    13 x    32          56154592000       0.0%    100.0%      0.0%
 flops    32 x    32 x    32          58785792000       0.0%    100.0%      0.0%
 flops   100 x    32 x   182          60755968000       0.0%    100.0%      0.0%
 flops   108 x    32 x   185          62529408000       0.0%    100.0%      0.0%
 flops   100 x    32 x    32          63897600000       0.0%    100.0%      0.0%
 flops    32 x    32 x   180          69783552000       0.0%    100.0%      0.0%
 flops   100 x    32 x   185          77196800000       0.0%    100.0%      0.0%
 flops    32 x    32 x   182          94078566400       0.0%    100.0%      0.0%
 flops     5 x    32 x     5         112614000000       0.0%    100.0%      0.0%
 flops    32 x    32 x   185         119536640000       0.0%    100.0%      0.0%
 flops    13 x    13 x    32         122918432000       0.0%    100.0%      0.0%
 flops    13 x    32 x     5         247671923200       0.0%    100.0%      0.0%
 flops     5 x    32 x    13         247671923200       0.0%    100.0%      0.0%
 flops    13 x    32 x    13         537582240000       0.0%    100.0%      0.0%
 flops inhomo. stacks                           0       0.0%      0.0%      0.0%
 flops total                         3.187356E+12       0.0%    100.0%      0.0%
 flops max/rank                     26.738166E+09       0.0%    100.0%      0.0%
 matmuls inhomo. stacks                         0       0.0%      0.0%      0.0%
 matmuls total                          328369657       0.0%    100.0%      0.0%
 number of processed stacks              12310463       0.0%    100.0%      0.0%
 average stack size                                     0.0      26.7       0.0
 marketing flops                     3.470523E+12
 -------------------------------------------------------------------------------
 # multiplications                           3193
 max memory usage/rank             844.865536E+06
 # max total images/rank                        1
 # max 3D layers                                1
 # MPI messages exchanged                10115424
 MPI messages size (bytes):
  total size                       514.700739E+09
  min size                           0.000000E+00
  max size                         273.800000E+03
  average size                      50.882766E+03
 MPI breakdown and total messages size (bytes):
             size <=      128             1091519                        0
       128 < size <=     8192             3426841              24227039672
      8192 < size <=    32768              407880               4174243920
     32768 < size <=   131072             4078800             190822579200
    131072 < size <=  4194304             1110384             295479497192
   4194304 < size <= 16777216                   0                        0
  16777216 < size                               0                        0
 -------------------------------------------------------------------------------
 -                                                                             -
 -                      DBCSR MESSAGE PASSING PERFORMANCE                      -
 -                                                                             -
 -------------------------------------------------------------------------------
 ROUTINE             CALLS      AVE VOLUME [Bytes]
 MP_Bcast              141                     12.
 MP_Allreduce        17408                      8.
 MP_Alltoall         10606                  27627.
 MP_ISend           153236                  25181.
 MP_IRecv           153236                  24728.
 -------------------------------------------------------------------------------

 -------------------------------------------------------------------------------
 -                                                                             -
 -                                GRID STATISTICS                              -
 -                                                                             -
 -------------------------------------------------------------------------------
 LP    KERNEL             BACKEND                              COUNT     PERCENT
 3     collocate ortho    REF                               51761518      24.25%
 3     integrate ortho    REF                               50985747      23.89%
 2     collocate ortho    REF                               33697864      15.79%
 2     integrate ortho    REF                               32250677      15.11%
 4     integrate ortho    REF                               22327925      10.46%
 4     collocate ortho    REF                               21007110       9.84%
 5     integrate ortho    REF                                 902143       0.42%
 0     collocate general  REF                                 255024       0.12%
 1     integrate general  REF                                 255024       0.12%
 -------------------------------------------------------------------------------

 MEMORY| Estimated peak process memory [MiB]                                 874

 -------------------------------------------------------------------------------
 -                                                                             -
 -                         MESSAGE PASSING PERFORMANCE                         -
 -                                                                             -
 -------------------------------------------------------------------------------

 ROUTINE             CALLS      AVE VOLUME [Bytes]
 MP_Group                8
 MP_Bcast             9369                9661663.
 MP_Allreduce         6692                  23824.
 MP_Sync                12
 MP_Alltoall          3328                6215589.
 MP_SendRecv          2016                 103672.
 MP_ISendRecv        93236                  25920.
 MP_Wait            126787
 MP_ISend            30347                 178646.
 MP_IRecv            30116                 179850.
 MP_Recv               121                 491232.
 -------------------------------------------------------------------------------


 -------------------------------------------------------------------------------
 -                                                                             -
 -                           R E F E R E N C E S                               -
 -                                                                             -
 -------------------------------------------------------------------------------
 
 CP2K version 8.1, the CP2K developers group (2020).
 CP2K is freely available from https://www.cp2k.org/ .

 Kuehne,Thomas D.; Iannuzzi,Marcella; Del Ben,Mauro;
 Rybkin,Vladimir V.; Seewald,Patrick; Stein,Frederick; Laino,Teodoro;
 Khaliullin,Rustam Z.; Schuett,Ole; Schiffmann,Florian; Golze,Dorothea;
 Wilhelm,Jan; Chulkov,Sergey; Bani-Hashemian,Mohammad Hossein;
 Weber,Valery; Borstnik,Urban; Taillefumier,Mathieu;
 Jakobovits,Alice Shoshana; Lazzaro,Alfio; Pabst,Hans; Mueller,Tiziano;
 Schade,Robert; Guidon,Manuel; Andermatt,Samuel; Holmberg,Nico;
 Schenter,Gregory K.; Hehn,Anna; Bussy,Augustin; Belleflamme,Fabian;
 Tabacchi,Gloria; Gloess,Andreas; Lass,Michael; Bethune,Iain;
 Mundy,Christopher J.; Plessl,Christian; Watkins,Matt;
 VandeVondele,Joost; Krack,Matthias; Hutter,Juerg. 
 The Journal of Chemical Physics, 152 (19), (2020). 
 CP2K: An electronic structure and molecular dynamics software package -
 Quickstep: Efficient and accurate electronic structure calculations.
 https://doi.org/10.1063/5.0007045

 Schuett, Ole; Messmer, Peter; Hutter, Juerg; VandeVondele, Joost. 
 Electronic Structure Calculations on Graphics Processing Units, John
 Wiley & Sons, Ltd, 173-190 (2016). 
 GPU-Accelerated Sparse Matrix-Matrix Multiplication for
 Linear Scaling Density Functional Theory.
 https://doi.org/10.1002/9781118670712.ch8

 Borstnik, U; VandeVondele, J; Weber, V; Hutter, J. 
 PARALLEL COMPUTING, 40 (5-6), 47-58 (2014). 
 Sparse matrix multiplication: The distributed block-compressed sparse
 row library.
 https://doi.org/10.1016/j.parco.2014.03.012

 Hutter, J; Iannuzzi, M; Schiffmann, F; VandeVondele, J. 
 WIREs Comput Mol Sci., 4 (1), 15-25 (2014). 
 CP2K: atomistic simulations of condensed matter systems.
 https://doi.org/10.1002/wcms.1159

 Marek, A; Blum, V; Johanni, R; Havu, V; Lang, B; Auckenthaler, T;
 Heinecke, A; Bungartz, H; Lederer, H. 
 Journal of Physics: Condensed Matter, 26 (21), (2014). 
 The ELPA library: scalable parallel eigenvalue solutions for
 electronic structure
 theory and computational science.
 https://doi.org/10.1088/0953-8984/26/21/213201

 VandeVondele, J; Hutter, J. 
 JOURNAL OF CHEMICAL PHYSICS, 127 (11), 114105 (2007). 
 Gaussian basis sets for accurate calculations on molecular systems in
 gas and condensed phases.
 https://doi.org/10.1063/1.2770708

 Kuhne, TD; Krack, M; Mohamed, FR; Parrinello, M. 
 PHYSICAL REVIEW LETTERS, 98 (6), 066401 (2007). 
 Efficient and accurate Car-Parrinello-like approach to
 Born-Oppenheimer molecular dynamics.
 https://doi.org/10.1103/PhysRevLett.98.066401

 Laino, T; Mohamed, F; Laio, A; Parrinello, M. 
 JOURNAL OF CHEMICAL THEORY AND COMPUTATION, 2 (5), 1370-1378 (2006). 
 An efficient linear-scaling electrostatic coupling for treating
 periodic boundary conditions in QM/MM simulations.
 https://doi.org/10.1021/ct6001169

 Laino, T; Mohamed, F; Laio, A; Parrinello, M. 
 JOURNAL OF CHEMICAL THEORY AND COMPUTATION, 1 (6), 1176-1184 (2005). 
 An efficient real space multigrid QM/MM electrostatic coupling.
 https://doi.org/10.1021/ct050123f

 Krack, M. 
 THEORETICAL CHEMISTRY ACCOUNTS, 114 (1-3), 145-152 (2005). 
 Pseudopotentials for H to Kr optimized for gradient-corrected
 exchange-correlation functionals.
 https://doi.org/10.1007/s00214-005-0655-y

 VandeVondele, J; Krack, M; Mohamed, F; Parrinello, M; Chassaing, T;
 Hutter, J. COMPUTER PHYSICS COMMUNICATIONS, 167 (2), 103-128 (2005). 
 QUICKSTEP: Fast and accurate density functional calculations using a
 mixed Gaussian and plane waves approach.
 https://doi.org/10.1016/j.cpc.2004.12.014

 Frigo, M; Johnson, SG. 
 PROCEEDINGS OF THE IEEE, 93 (2), 216-231 (2005). 
 The design and implementation of FFTW3.
 https://doi.org/10.1109/JPROC.2004.840301

 Kolafa, J. 
 JOURNAL OF COMPUTATIONAL CHEMISTRY, 25 (3), 335-342 (2004). 
 Time-reversible always stable predictor-corrector method for molecular dynamics of polarizable molecules.
 https://doi.org/10.1002/jcc.10385

 VandeVondele, J; Hutter, J. 
 JOURNAL OF CHEMICAL PHYSICS, 118 (10), 4365-4369 (2003). 
 An efficient orbital transformation method for electronic structure
 calculations.
 https://doi.org/10.1063/1.1543154

 Hartwigsen, C; Goedecker, S; Hutter, J. 
 PHYSICAL REVIEW B, 58 (7), 3641-3662 (1998). 
 Relativistic separable dual-space Gaussian pseudopotentials from H to Rn.
 https://doi.org/10.1103/PhysRevB.58.3641

 Lippert, G; Hutter, J; Parrinello, M. 
 MOLECULAR PHYSICS, 92 (3), 477-487 (1997). 
 A hybrid Gaussian and plane wave density functional scheme.
 https://doi.org/10.1080/002689797170220

 Goedecker, S; Teter, M; Hutter, J. 
 PHYSICAL REVIEW B, 54 (3), 1703-1710 (1996). 
 Separable dual-space Gaussian pseudopotentials.
 https://doi.org/10.1103/PhysRevB.54.1703

 ESSMANN, U; PERERA, L; BERKOWITZ, ML; DARDEN, T; LEE, H; PEDERSEN, LG. 
 JOURNAL OF CHEMICAL PHYSICS, 103 (19), 8577-8593 (1995). 
 A SMOOTH PARTICLE MESH EWALD METHOD.
 https://doi.org/10.1063/1.470117

 BLOCHL, PE. 
 JOURNAL OF CHEMICAL PHYSICS, 103 (17), 7422-7428 (1995). 
 ELECTROSTATIC DECOUPLING OF PERIODIC IMAGES OF PLANE-WAVE-EXPANDED
 DENSITIES AND DERIVED ATOMIC POINT CHARGES.
 https://doi.org/10.1063/1.470314

 BECKE, AD. PHYSICAL REVIEW A, 38 (6), 3098-3100 (1988). 
 DENSITY-FUNCTIONAL EXCHANGE-ENERGY APPROXIMATION WITH CORRECT
 ASYMPTOTIC-BEHAVIOR.
 https://doi.org/10.1103/PhysRevA.38.3098

 LEE, CT; YANG, WT; PARR, RG. 
 PHYSICAL REVIEW B, 37 (2), 785-789 (1988). 
 DEVELOPMENT OF THE COLLE-SALVETTI CORRELATION-ENERGY FORMULA INTO A
 FUNCTIONAL OF THE ELECTRON-DENSITY.
 https://doi.org/10.1103/PhysRevB.37.785


 -------------------------------------------------------------------------------
 -                                                                             -
 -                                T I M I N G                                  -
 -                                                                             -
 -------------------------------------------------------------------------------
 SUBROUTINE                       CALLS  ASD         SELF TIME        TOTAL TIME
                                MAXIMUM       AVERAGE  MAXIMUM  AVERAGE  MAXIMUM
 CP2K                                 1  1.0    0.239    0.249 1030.123 1030.131
 qs_mol_dyn_low                       1  2.0    0.010    0.011  951.536  953.356
 velocity_verlet                      6  3.0    0.042    0.044  848.221  848.248
 qs_forces                            7  3.9    0.002    0.002  326.615  326.631
 qmmm_forces                          7  3.9    0.041    0.042  324.057  324.061
 qmmm_forces_with_gaussian            7  4.9    0.004    0.006   86.879  323.811
 qmmm_force_with_gaussian_low         7  5.9    0.000    0.000   84.261  321.192
 qs_energies                          7  4.9    0.000    0.000  316.191  316.207
 scf_env_do_scf                       7  5.9    0.000    0.000  304.076  304.077
 scf_env_do_scf_inner_loop          156  7.0    0.005    0.011  293.246  293.325
 qmmm_el_coupling                     7  3.9    0.000    0.000  293.289  293.304
 qmmm_elec_with_gaussian              7  4.9    0.002    0.003  293.286  293.301
 qmmm_elec_with_gaussian_low          7  5.9    0.000    0.000   83.202  290.974
 mp_sum_dm                          908  5.1  240.819  285.007  240.819  285.007
 mp_sync                             12  6.7  207.776  248.782  207.776  248.782
 qmmm_forces_gaussian_low_R           7  6.9    0.000    0.000   53.511  219.654
 qmmm_forces_with_gaussian_LG         7  7.9   53.511  219.654   53.511  219.654
 rebuild_ks_matrix                  163  8.8    0.001    0.001  154.978  155.081
 qs_ks_build_kohn_sham_matrix       163  9.8    0.018    0.021  154.978  155.080
 qs_rho_update_rho                  163  8.0    0.001    0.001  152.161  152.187
 calculate_rho_elec                 163  9.0    0.128    0.128  152.160  152.187
 qmmm_elec_gaussian_low_R             7  6.9    0.000    0.000   37.304  150.461
 qmmm_elec_with_gaussian_LG           7  7.9   37.304  150.461   37.304  150.461
 qs_ks_update_qs_env                163  8.0    0.001    0.002  146.153  146.251
 qmmm_elec_gaussian_low_G             7  6.9   45.898  140.513   45.898  140.513
 grid_collocate_task_list           163 10.0   37.344  137.370   37.344  137.370
 rs_pw_transfer                    1346 12.3    0.019    0.022  115.436  134.960
 density_rs2pw                      163 10.0    0.007    0.008  113.927  133.474
 mp_waitany                       30116 14.2  106.902  126.587  106.902  126.587
 rs_pw_transfer_RS2PW_150           170 11.9    0.927    1.290   90.627  120.969
 sum_up_and_integrate               163 10.8    0.079    0.086  115.046  115.157
 integrate_v_rspace                 163 11.8    0.004    0.006  114.966  115.076
 grid_integrate_task_list           163 12.8   25.844  101.550   25.844  101.550
 qmmm_forces_gaussian_low_G           7  6.9   30.750  101.538   30.750  101.538
 mp_alltoall_d11v                  2283 14.0   77.014   92.009   77.014   92.009
 rs_gather_matrices                 163 12.8    0.035    0.041   76.279   91.238
 qmmm_env_create                      1  2.0   11.657   12.220   76.459   76.467
 fist_init                            1  3.0    0.000    0.000   60.560   60.560
 rs_pw_transfer_RS2PW_40            163 12.0    0.519    0.572   14.145   47.031
 pw_transfer                       3337 12.5    0.187    0.245   43.207   43.880
 fft_wrap_pw1pw2                   2813 13.6    0.027    0.034   42.635   43.321
 fft_wrap_pw1pw2_150               1807 14.7    2.048    2.237   41.124   41.732
 force_field_control                  1  4.0    0.000    0.000   37.655   38.247
 fft3d_ps                          2813 15.6   14.390   15.289   37.413   38.227
 rdparm_amber_8                       2  6.5   27.462   29.457   33.120   33.485
 qs_vxc_create                      163 10.8    0.002    0.002   29.796   29.803
 xc_vxc_pw_create                   163 11.8    0.349    0.451   29.794   29.801
 topology_control                     1  4.0    0.000    0.000   22.213   22.937
 mp_alltoall_z22v                  2813 17.6   20.619   21.531   20.619   21.531
 force_field_pack                     1  5.0    0.016    0.018   20.412   21.007
 -------------------------------------------------------------------------------

 The number of warnings for this run is : 0
 
 -------------------------------------------------------------------------------
  **** **** ******  **  PROGRAM ENDED AT                 2021-04-20 14:59:02.904
 ***** ** ***  *** **   PROGRAM RAN ON                                    r1i3n3
 **    ****   ******    PROGRAM RAN BY                                    hollyj
 ***** **    ** ** **   PROGRAM PROCESS ID                                 59435
  **** **  *******  **  PROGRAM STOPPED IN /lustre/home/w68/hollyj/CP2K/Cirrus/C
                                           PU/cp2kMD/ClC-253-BLYP/6STEPS/8NODES/
                                           36CPN/2THREADS
