 DBCSR| CPU Multiplication driver                                           XSMM
 DBCSR| Multrec recursion limit                                              512
 DBCSR| Multiplication stack size                                           1000
 DBCSR| Maximum elements for images                                    UNLIMITED
 DBCSR| Multiplicative factor virtual images                                   1
 DBCSR| Use multiplication densification                                       T
 DBCSR| Multiplication size stacks                                             3
 DBCSR| Use memory pool for CPU allocation                                     F
 DBCSR| Number of 3D layers                                               SINGLE
 DBCSR| Use MPI memory allocation                                              F
 DBCSR| Use RMA algorithm                                                      F
 DBCSR| Use Communication thread                                               T
 DBCSR| Communication thread load                                             87
 DBCSR| MPI: My node id                                                        0
 DBCSR| MPI: Number of nodes                                                 288
 DBCSR| OMP: Current number of threads                                         1
 DBCSR| OMP: Max number of threads                                             1
 DBCSR| Split modifier for TAS multiplication algorithm                  1.0E+00


  **** **** ******  **  PROGRAM STARTED AT               2021-04-19 14:07:56.482
 ***** ** ***  *** **   PROGRAM STARTED ON                                r1i1n8
 **    ****   ******    PROGRAM STARTED BY                                hollyj
 ***** **    ** ** **   PROGRAM PROCESS ID                                 18899
  **** **  *******  **  PROGRAM STARTED IN /lustre/home/w68/hollyj/CP2K/Cirrus/C
                                           PU/cp2kMD/CBD_PHY-PBE0/6STEPS/8NODES/
                                           36CPN/1THREADS

 CP2K| version string:                                          CP2K version 8.1
 CP2K| source code revision number:                                  git:0b61f2f
 CP2K| cp2kflags: omp libint fftw3 libxc elpa parallel mpi3 scalapack xsmm spgli
 CP2K|            b mkl
 CP2K| is freely available from                            https://www.cp2k.org/
 CP2K| Program compiled at                           Mon Feb 1 13:14:42 GMT 2021
 CP2K| Program compiled on                                         cirrus-login1
 CP2K| Program compiled for                                           Cirrus-gcc
 CP2K| Data directory path       /lustre/home/w68/hollyj/CP2K/v8.1/cp2k-8.1/data
 CP2K| Input file name                                          CBD_PHY-cp2k.inp

 GLOBAL| Force Environment number                                              1
 GLOBAL| Basis set file name                                           HFX_BASIS
 GLOBAL| Potential file name                                           POTENTIAL
 GLOBAL| MM Potential file name                                     MM_POTENTIAL
 GLOBAL| Coordinate file name                                        CBD_PHY.pdb
 GLOBAL| Method name                                                        CP2K
 GLOBAL| Project name                                               CBD_PHY-PBE0
 GLOBAL| Preferred FFT library                                             FFTW3
 GLOBAL| Preferred diagonalization lib.                                     ELPA
 GLOBAL| Run type                                                             MD
 GLOBAL| All-to-all communication in single precision                          F
 GLOBAL| FFTs using library dependent lengths                                  F
 GLOBAL| Global print level                                                  LOW
 GLOBAL| MPI I/O enabled                                                       T
 GLOBAL| Total number of message passing processes                           288
 GLOBAL| Number of threads for this process                                    1
 GLOBAL| This output is from process                                           0
 GLOBAL| CPU model name                Intel(R) Xeon(R) CPU E5-2695 v4 @ 2.10GHz
 GLOBAL| CPUID                                                              1002
 GLOBAL| Compiled for CPUID                                                 1001

 *** HINT in environment.F:802 :: The compiler target flags (x86_avx) used ***
 *** to build this binary cannot exploit all extensions of this CPU model  ***
 *** (x86_avx2). Consider compiler target flags as part of FCFLAGS and     ***
 *** CFLAGS (ARCH file).                                                   ***


 MEMORY| system memory details [Kb]
 MEMORY|                        rank 0           min           max       average
 MEMORY| MemTotal            263692180     263692172     263692180     263692178
 MEMORY| MemFree             258541280     258519396     258834456     258656843
 MEMORY| Buffers                     0             0             0             0
 MEMORY| Cached                 572716        496584        572716        517232
 MEMORY| Slab                   948872        882136        965092        924837
 MEMORY| SReclaimable           214220        201808        227248        214830
 MEMORY| MemLikelyFree       259328216     259276516     259535632     259388906



                      ************* ******** ***********   
                     ************* **********************  
                     ****     **** ****      ***********   
                     ******** ****  *******     ****       
                     *******  ****   *******   ****        
                     ****     ****       ****  ****        
                     ****     **** **********  ****        
                      ****     **** ********    ****       
                     FRONTIERS IN SIMULATION TECHNOLOGY    
                                                           
                        C.J. Mundy, S. Balasubramanian,    
                     Ken Bagchi, J. Hutter, Ari Seitsonen  
                      IFW Kuo, T. Laino, J. VandeVondele   
                                 Version 1.0               

                                                           


 EWALD| Summation is done by:                                               SPME
 EWALD| Alpha parameter [       ANGSTROM^-1]                              0.4000
 EWALD| Real Space Cutoff [          ANGSTROM]                            8.4348
 EWALD| G-space max. Miller index                         80        80        80
 EWALD| Spline interpolation order                                             6

 FORCEFIELD| WARNING: A non Critical ForceField parameter is missing! CP2K GOES!
 FORCEFIELD| Non critical parameters are:Urey-Bradley,Torsions,Impropers, Opbends and 1-4
 FORCEFIELD| All missing parameters will not contribute to the potential energy!
 FORCEFIELD| Activate the print key FF_INFO to have a list of missing parameters

 CHARGE_INFO| Total Charge of the Classical System:                    -0.825808

 SPLINE_INFO| Generating 101926 splines for NONBONDED14 interactions 
              Due to 451 different atomic kinds
  ...10192  ...20384  ...30576  ...40768  ...50960  ...61152  ...71344  ...81536  ...91728  ...101920
 SPLINE_INFO| Number of unique splines computed:            301
 SPLINE_INFO| Done

 SPLINE_INFO| Generating 101926 splines for NONBONDED interactions 
              Due to 451 different atomic kinds
  ...10192  ...20384  ...30576  ...40768  ...50960  ...61152  ...71344  ...81536  ...91728  ...101920
 SPLINE_INFO| Number of unique splines computed:            301
 SPLINE_INFO| Done

 *******************************************************************************
 *******************************************************************************
 **                                                                           **
 **     #####                         ##              ##                      **
 **    ##   ##            ##          ##              ##                      **
 **   ##     ##                       ##            ######                    **
 **   ##     ##  ##   ##  ##   #####  ##  ##   ####   ##    #####    #####    **
 **   ##     ##  ##   ##  ##  ##      ## ##   ##      ##   ##   ##  ##   ##   **
 **   ##  ## ##  ##   ##  ##  ##      ####     ###    ##   ######   ######    **
 **    ##  ###   ##   ##  ##  ##      ## ##      ##   ##   ##       ##        **
 **     #######   #####   ##   #####  ##  ##  ####    ##    #####   ##        **
 **           ##                                                    ##        **
 **                                                                           **
 **                                                ... make the atoms dance   **
 **                                                                           **
 **            Copyright (C) by CP2K developers group (2000 - 2020)           **
 **                      J. Chem. Phys. 152, 194103 (2020)                    **
 **                                                                           **
 *******************************************************************************


 TOTAL NUMBERS AND MAXIMUM NUMBERS

  Total number of            - Atomic kinds:                                   5
                             - Atoms:                                         68
                             - Shell sets:                                   340
                             - Shells:                                       445
                             - Primitive Cartesian functions:                476
                             - Cartesian basis functions:                   1137
                             - Spherical basis functions:                   1067

  Maximum angular momentum of- Orbital basis functions:                        2
                             - Local part of the GTH pseudopotential:          2
                             - Non-local part of the GTH pseudopotential:      0


 SCF PARAMETERS         Density guess:                                   RESTART
                        --------------------------------------------------------
                        max_scf:                                              30
                        max_scf_history:                                       0
                        max_diis:                                              4
                        --------------------------------------------------------
                        eps_scf:                                        1.00E-06
                        eps_scf_history:                                0.00E+00
                        eps_diis:                                       1.00E-01
                        eps_eigval:                                     1.00E-05
                        --------------------------------------------------------
                        level_shift [a.u.]:                                 0.00
                        --------------------------------------------------------
                        Outer loop SCF in use 
                        No variables optimised in outer loop
                        eps_scf                                         1.00E-06
                        max_scf                                               20
                        No outer loop optimization
                        step_size                                       5.00E-01

 *******************************************************************************
 *******************************************************************************
 **                                                                           **
 **             #######  ##     ## ##     ## ##     ##                        **
 **            ##     ## ###   ### ###   ### ###   ###                        **
 **            ##     ## #### #### #### #### #### ####                        **
 **            ##     ## ## ### ## ## ### ## ## ### ##                        **
 **            ##  ## ## ##     ## ##     ## ##     ##                        **
 **            ##    ##  ##     ## ##     ## ##     ##  T.Laino and F.Mohamed **
 **             ##### ## ##     ## ##     ## ##     ##  2005 - 2015           **
 **                                                                           **
 **                                                     Calculation Started.. **
 *******************************************************************************
 *******************************************************************************

 MD_PAR| Molecular dynamics protocol (MD input parameters)
 MD_PAR| Ensemble type                                                       NVE
 MD_PAR| Number of time steps                                                  6
 MD_PAR| Time step [fs]                                                 1.000000
 MD_PAR| Temperature [K]                                              300.000000
 MD_PAR| Temperature tolerance [K]                                      0.000000
 MD_PAR| Print MD information every                                    1 step(s)
 MD_PAR| File type   Print frequency [steps]                          File names
 MD_PAR| Coordinates          1                           CBD_PHY-PBE0-pos-1.xyz
 MD_PAR| Velocities           1                           CBD_PHY-PBE0-vel-1.xyz
 MD_PAR| Energies             1                              CBD_PHY-PBE0-1.ener
 MD_PAR| Dump                20                           CBD_PHY-PBE0-1.restart

 ROT| Rotational analysis information
 ROT| Principal axes and moments of inertia [a.u.]
 ROT|                           1                   2                   3
 ROT| Eigenvalues      1.56283164001E+13   1.56407408488E+13   1.56663418804E+13
 ROT|      x              0.901637047331     -0.018153263569      0.432112362589
 ROT|      y              0.323714777231      0.690893927917     -0.646431994389
 ROT|      z             -0.286808957117      0.722728191915      0.628812040859
 ROT| Number of rotovibrational vectors                                        6

 DOF| Calculation of degrees of freedom
 DOF| Number of atoms                                                     167923
 DOF| Number of intramolecular constraints                                     0
 DOF| Number of intermolecular constraints                                     0
 DOF| Invariants (translations + rotations)                                    3
 DOF| Degrees of freedom                                                  503766

 DOF| Restraints information
 DOF| Number of intramolecular restraints                                      0
 DOF| Number of intermolecular restraints                                      0

 MD_VEL| Velocities initialization
 MD_VEL| Initial temperature [K]                                      300.000000
 MD_VEL| COM velocity            -0.0000000000     0.0000000000     0.0000000000

  Translating the system in order to center the QM fragment in the QM box.

 Number of electrons:                                                        180
 Number of occupied orbitals:                                                 90
 Number of molecular orbitals:                                                90

 Number of orbital functions:                                               1067
 Number of independent orbital functions:                                   1067

 Extrapolation method: initial_guess


 SCF WAVEFUNCTION OPTIMIZATION

  ----------------------------------- OT ---------------------------------------
  Minimizer      : DIIS                : direct inversion
                                         in the iterative subspace
                                         using   7 DIIS vectors
                                         safer DIIS on
  Preconditioner : FULL_ALL            : diagonalization, state selective
  Precond_solver : DEFAULT
  stepsize       :    0.15000000                  energy_gap     :    0.08000000
  eps_taylor     :   0.10000E-15                  max_taylor     :             4
  ----------------------------------- OT ---------------------------------------

  Step     Update method      Time    Convergence         Total energy    Change
  ------------------------------------------------------------------------------
  Decoupling Energy:                                               0.0370647021
  Recoupling Energy:                                              -0.0063741479
     1 OT DIIS     0.15E+00    9.3     0.00129057      -255.9257316527 -2.56E+02
  Decoupling Energy:                                               0.0370576004
  Recoupling Energy:                                              -0.0063740314
     2 OT DIIS     0.15E+00    1.6     0.00057761      -255.9419521970 -1.62E-02
  Decoupling Energy:                                               0.0369596417
  Recoupling Energy:                                              -0.0063730135
     3 OT DIIS     0.15E+00    1.7     0.00038348      -255.9451217313 -3.17E-03
  Decoupling Energy:                                               0.0369795470
  Recoupling Energy:                                              -0.0063732416
     4 OT DIIS     0.15E+00    1.7     0.00009866      -255.9458275763 -7.06E-04
  Decoupling Energy:                                               0.0369716948
  Recoupling Energy:                                              -0.0063731487
     5 OT DIIS     0.15E+00    1.7     0.00003992      -255.9458779680 -5.04E-05
  Decoupling Energy:                                               0.0369737640
  Recoupling Energy:                                              -0.0063731649
     6 OT DIIS     0.15E+00    1.7     0.00001793      -255.9458894164 -1.14E-05
  Decoupling Energy:                                               0.0369741807
  Recoupling Energy:                                              -0.0063731680
     7 OT DIIS     0.15E+00    1.6     0.00000621      -255.9458922933 -2.88E-06
  Decoupling Energy:                                               0.0369727126
  Recoupling Energy:                                              -0.0063731518
     8 OT DIIS     0.15E+00    1.7     0.00000242      -255.9458926323 -3.39E-07
  Decoupling Energy:                                               0.0369731060
  Recoupling Energy:                                              -0.0063731556
     9 OT DIIS     0.15E+00    1.7     0.00000111      -255.9458926816 -4.94E-08
  Decoupling Energy:                                               0.0369728227
  Recoupling Energy:                                              -0.0063731526
    10 OT DIIS     0.15E+00    1.6     0.00000048      -255.9458926918 -1.02E-08

  *** SCF run converged in    10 steps ***


  Electronic density on regular grids:       -179.9999999999        0.0000000001
  Core density on regular grids:              180.9999999999       -0.0000000001
  Total charge density on r-space grids:        1.0000000000
  Total charge density g-space grids:           1.0000000000

  Overlap energy of the core charge distribution:               0.00001951532734
  Self energy of the core charge distribution:               -615.71576003586028
  Core Hamiltonian energy:                                    191.01363234739605
  Hartree energy:                                             248.20663852141990
  Exchange-correlation energy:                                -61.38430758347351
  Hartree-Fock Exchange energy:                               -18.10821017492039
  QM/MM Electrostatic energy:                                   0.04209471826721

  Total energy:                                              -255.94589269184362

  outer SCF iter =    1 RMS gradient =   0.48E-06 energy =       -255.9458926918
  outer SCF loop converged in   1 iterations or   10 steps

  Decoupling Energy:                                               0.0369728027
  Recoupling Energy:                                              -0.0063731523

 ENERGY| Total FORCE_EVAL ( QMMM ) energy [a.u.]:          -1088.110859623915076

 MD_INI| MD initialization
 MD_INI| Potential energy [hartree]                          -0.108811085962E+04
 MD_INI| Total kinetic energy [hartree]                       0.239300084734E+03
 MD_INI| QM kinetic energy [hartree]                          0.106639360339E+00
 MD_INI| Total temperature [K]                                        300.000000
 MD_INI| QM temperature [K]                                           330.137318
 MD_INI| Cell volume [bohr^3]                                 1.137316355424E+07
 MD_INI| Cell volume [ang^3]                                  1.685328937712E+06
 MD_INI| Cell lengths [bohr]      2.24884969E+02  2.24884969E+02  2.24884969E+02
 MD_INI| Cell lengths [ang]       1.19004000E+02  1.19004000E+02  1.19004000E+02
 MD_INI| Cell angles [deg]        9.00000000E+01  9.00000000E+01  9.00000000E+01

  Translating the system in order to center the QM fragment in the QM box.

 Number of electrons:                                                        180
 Number of occupied orbitals:                                                 90
 Number of molecular orbitals:                                                90

 Number of orbital functions:                                               1067
 Number of independent orbital functions:                                   1067

 Extrapolation method: ASPC


 SCF WAVEFUNCTION OPTIMIZATION

  ----------------------------------- OT ---------------------------------------
  Minimizer      : DIIS                : direct inversion
                                         in the iterative subspace
                                         using   7 DIIS vectors
                                         safer DIIS on
  Preconditioner : FULL_ALL            : diagonalization, state selective
  Precond_solver : DEFAULT
  stepsize       :    0.15000000                  energy_gap     :    0.08000000
  eps_taylor     :   0.10000E-15                  max_taylor     :             4
  ----------------------------------- OT ---------------------------------------

  Step     Update method      Time    Convergence         Total energy    Change
  ------------------------------------------------------------------------------
  Decoupling Energy:                                               0.0370014666
  Recoupling Energy:                                              -0.0063734172
     1 OT DIIS     0.15E+00    5.6     0.00075899      -255.7182133384 -2.56E+02
  Decoupling Energy:                                               0.0370082379
  Recoupling Energy:                                              -0.0063735355
     2 OT DIIS     0.15E+00    1.6     0.00032685      -255.7237311698 -5.52E-03
  Decoupling Energy:                                               0.0370087414
  Recoupling Energy:                                              -0.0063735590
     3 OT DIIS     0.15E+00    1.6     0.00019068      -255.7247684926 -1.04E-03
  Decoupling Energy:                                               0.0370199882
  Recoupling Energy:                                              -0.0063736817
     4 OT DIIS     0.15E+00    1.6     0.00006054      -255.7249609255 -1.92E-04
  Decoupling Energy:                                               0.0370216763
  Recoupling Energy:                                              -0.0063737045
     5 OT DIIS     0.15E+00    1.6     0.00001954      -255.7249774901 -1.66E-05
  Decoupling Energy:                                               0.0370210005
  Recoupling Energy:                                              -0.0063736984
     6 OT DIIS     0.15E+00    1.6     0.00000817      -255.7249797485 -2.26E-06
  Decoupling Energy:                                               0.0370221929
  Recoupling Energy:                                              -0.0063737124
     7 OT DIIS     0.15E+00    1.6     0.00000308      -255.7249802105 -4.62E-07
  Decoupling Energy:                                               0.0370222382
  Recoupling Energy:                                              -0.0063737132
     8 OT DIIS     0.15E+00    1.6     0.00000136      -255.7249802878 -7.72E-08
  Decoupling Energy:                                               0.0370224659
  Recoupling Energy:                                              -0.0063737159
     9 OT DIIS     0.15E+00    1.6     0.00000058      -255.7249803035 -1.57E-08

  *** SCF run converged in     9 steps ***


  Electronic density on regular grids:       -180.0000000000        0.0000000000
  Core density on regular grids:              180.9999999999       -0.0000000001
  Total charge density on r-space grids:        0.9999999999
  Total charge density g-space grids:           0.9999999999

  Overlap energy of the core charge distribution:               0.00002422740857
  Self energy of the core charge distribution:               -615.71576003586028
  Core Hamiltonian energy:                                    191.21094914816297
  Hartree energy:                                             248.07774934646841
  Exchange-correlation energy:                                -61.42683515404605
  Hartree-Fock Exchange energy:                               -18.12283152052849
  QM/MM Electrostatic energy:                                   0.25172368489397

  Total energy:                                              -255.72498030350098

  outer SCF iter =    1 RMS gradient =   0.58E-06 energy =       -255.7249803035
  outer SCF loop converged in   1 iterations or    9 steps

  Decoupling Energy:                                               0.0370224944
  Recoupling Energy:                                              -0.0063737164

 ENERGY| Total FORCE_EVAL ( QMMM ) energy [a.u.]:          -1059.962356478633637

 MD| ***************************************************************************
 MD| Step number                                                               1
 MD| Time [fs]                                                          1.000000
 MD| Conserved quantity [hartree]                            -0.841461427296E+03
 MD| ---------------------------------------------------------------------------
 MD|                                          Instantaneous             Averages
 MD| CPU time per MD step [s]                    186.809749           186.809749
 MD| Energy drift per atom [K]           0.138202488564E+02   0.000000000000E+00
 MD| Potential energy [hartree]         -0.105996235648E+04  -0.105996235648E+04
 MD| Total kinetic energy [hartree]      0.218500929182E+03   0.218500929182E+03
 MD| QM kinetic energy [hartree]         0.121347056647E+00   0.121347056647E+00
 MD| Total temperature [K]                       273.925013           273.925013
 MD| QM temperature [K]                          375.669844           375.669844
 MD| ***************************************************************************

  Translating the system in order to center the QM fragment in the QM box.

 Number of electrons:                                                        180
 Number of occupied orbitals:                                                 90
 Number of molecular orbitals:                                                90

 Number of orbital functions:                                               1067
 Number of independent orbital functions:                                   1067

 Extrapolation method: ASPC


 SCF WAVEFUNCTION OPTIMIZATION

  ----------------------------------- OT ---------------------------------------
  Minimizer      : DIIS                : direct inversion
                                         in the iterative subspace
                                         using   7 DIIS vectors
                                         safer DIIS on
  Preconditioner : FULL_ALL            : diagonalization, state selective
  Precond_solver : DEFAULT
  stepsize       :    0.15000000                  energy_gap     :    0.08000000
  eps_taylor     :   0.10000E-15                  max_taylor     :             4
  ----------------------------------- OT ---------------------------------------

  Step     Update method      Time    Convergence         Total energy    Change
  ------------------------------------------------------------------------------
  Decoupling Energy:                                               0.0370781952
  Recoupling Energy:                                              -0.0063743358
     1 OT DIIS     0.15E+00    5.6     0.00029264      -255.3622518331 -2.55E+02
  Decoupling Energy:                                               0.0370714474
  Recoupling Energy:                                              -0.0063742686
     2 OT DIIS     0.15E+00    1.6     0.00012382      -255.3630881315 -8.36E-04
  Decoupling Energy:                                               0.0370747112
  Recoupling Energy:                                              -0.0063743002
     3 OT DIIS     0.15E+00    1.6     0.00005669      -255.3632555953 -1.67E-04
  Decoupling Energy:                                               0.0370720718
  Recoupling Energy:                                              -0.0063742776
     4 OT DIIS     0.15E+00    1.6     0.00001749      -255.3632743581 -1.88E-05
  Decoupling Energy:                                               0.0370725468
  Recoupling Energy:                                              -0.0063742816
     5 OT DIIS     0.15E+00    1.6     0.00000679      -255.3632758774 -1.52E-06
  Decoupling Energy:                                               0.0370729611
  Recoupling Energy:                                              -0.0063742866
     6 OT DIIS     0.15E+00    1.6     0.00000313      -255.3632761335 -2.56E-07
  Decoupling Energy:                                               0.0370729462
  Recoupling Energy:                                              -0.0063742865
     7 OT DIIS     0.15E+00    1.6     0.00000106      -255.3632761942 -6.08E-08
  Decoupling Energy:                                               0.0370730038
  Recoupling Energy:                                              -0.0063742872
     8 OT DIIS     0.15E+00    1.6     0.00000048      -255.3632762044 -1.02E-08

  *** SCF run converged in     8 steps ***


  Electronic density on regular grids:       -180.0000000000       -0.0000000000
  Core density on regular grids:              180.9999999999       -0.0000000001
  Total charge density on r-space grids:        0.9999999998
  Total charge density g-space grids:           0.9999999998

  Overlap energy of the core charge distribution:               0.00005088930392
  Self energy of the core charge distribution:               -615.71576003586028
  Core Hamiltonian energy:                                    191.44417530549774
  Hartree energy:                                             247.94137570367062
  Exchange-correlation energy:                                -61.47332329561499
  Hartree-Fock Exchange energy:                               -18.13880621187052
  QM/MM Electrostatic energy:                                   0.57901144047903

  Total energy:                                              -255.36327620439445

  outer SCF iter =    1 RMS gradient =   0.48E-06 energy =       -255.3632762044
  outer SCF loop converged in   1 iterations or    8 steps

  Decoupling Energy:                                               0.0370730208
  Recoupling Energy:                                              -0.0063742875

 ENERGY| Total FORCE_EVAL ( QMMM ) energy [a.u.]:          -1061.235329533578351

 MD| ***************************************************************************
 MD| Step number                                                               2
 MD| Time [fs]                                                          2.000000
 MD| Conserved quantity [hartree]                            -0.842817775167E+03
 MD| ---------------------------------------------------------------------------
 MD|                                          Instantaneous             Averages
 MD| CPU time per MD step [s]                     64.729831           125.769790
 MD| Energy drift per atom [K]           0.112696734664E+02   0.563483673320E+01
 MD| Potential energy [hartree]         -0.106123532953E+04  -0.106059884301E+04
 MD| Total kinetic energy [hartree]      0.218417554367E+03   0.218459241775E+03
 MD| QM kinetic energy [hartree]         0.111577835525E+00   0.116462446086E+00
 MD| Total temperature [K]                       273.820489           273.872751
 MD| QM temperature [K]                          345.425997           360.547921
 MD| ***************************************************************************

  Translating the system in order to center the QM fragment in the QM box.

 Number of electrons:                                                        180
 Number of occupied orbitals:                                                 90
 Number of molecular orbitals:                                                90

 Number of orbital functions:                                               1067
 Number of independent orbital functions:                                   1067

 Extrapolation method: ASPC


 SCF WAVEFUNCTION OPTIMIZATION

  ----------------------------------- OT ---------------------------------------
  Minimizer      : DIIS                : direct inversion
                                         in the iterative subspace
                                         using   7 DIIS vectors
                                         safer DIIS on
  Preconditioner : FULL_ALL            : diagonalization, state selective
  Precond_solver : DEFAULT
  stepsize       :    0.15000000                  energy_gap     :    0.08000000
  eps_taylor     :   0.10000E-15                  max_taylor     :             4
  ----------------------------------- OT ---------------------------------------

  Step     Update method      Time    Convergence         Total energy    Change
  ------------------------------------------------------------------------------
  Decoupling Energy:                                               0.0371231505
  Recoupling Energy:                                              -0.0063748343
     1 OT DIIS     0.15E+00    5.7     0.00057303      -254.8840280893 -2.55E+02
  Decoupling Energy:                                               0.0371263543
  Recoupling Energy:                                              -0.0063748785
     2 OT DIIS     0.15E+00    1.6     0.00022560      -254.8871529645 -3.12E-03
  Decoupling Energy:                                               0.0371271649
  Recoupling Energy:                                              -0.0063748854
     3 OT DIIS     0.15E+00    1.6     0.00008213      -254.8877081624 -5.55E-04
  Decoupling Energy:                                               0.0371222871
  Recoupling Energy:                                              -0.0063748369
     4 OT DIIS     0.15E+00    1.6     0.00002731      -254.8877583182 -5.02E-05
  Decoupling Energy:                                               0.0371233491
  Recoupling Energy:                                              -0.0063748482
     5 OT DIIS     0.15E+00    1.6     0.00001025      -254.8877620906 -3.77E-06
  Decoupling Energy:                                               0.0371231599
  Recoupling Energy:                                              -0.0063748450
     6 OT DIIS     0.15E+00    1.6     0.00000433      -254.8877626689 -5.78E-07
  Decoupling Energy:                                               0.0371230885
  Recoupling Energy:                                              -0.0063748447
     7 OT DIIS     0.15E+00    1.6     0.00000136      -254.8877627566 -8.78E-08
  Decoupling Energy:                                               0.0371230922
  Recoupling Energy:                                              -0.0063748447
     8 OT DIIS     0.15E+00    1.6     0.00000060      -254.8877627674 -1.07E-08

  *** SCF run converged in     8 steps ***


  Electronic density on regular grids:       -180.0000000003       -0.0000000003
  Core density on regular grids:              180.9999999999       -0.0000000001
  Total charge density on r-space grids:        0.9999999996
  Total charge density g-space grids:           0.9999999996

  Overlap energy of the core charge distribution:               0.00005124492323
  Self energy of the core charge distribution:               -615.71576003586028
  Core Hamiltonian energy:                                    191.49125095538821
  Hartree energy:                                             247.90728421590768
  Exchange-correlation energy:                                -61.48094411427105
  Hartree-Fock Exchange energy:                               -18.14140093387450
  QM/MM Electrostatic energy:                                   1.05175590039775

  Total energy:                                              -254.88776276738895

  outer SCF iter =    1 RMS gradient =   0.60E-06 energy =       -254.8877627674
  outer SCF loop converged in   1 iterations or    8 steps

  Decoupling Energy:                                               0.0371230908
  Recoupling Energy:                                              -0.0063748447

 ENERGY| Total FORCE_EVAL ( QMMM ) energy [a.u.]:          -1082.045340925079927

 MD| ***************************************************************************
 MD| Step number                                                               3
 MD| Time [fs]                                                          3.000000
 MD| Conserved quantity [hartree]                            -0.846392350145E+03
 MD| ---------------------------------------------------------------------------
 MD|                                          Instantaneous             Averages
 MD| CPU time per MD step [s]                     65.191382           105.576987
 MD| Energy drift per atom [K]           0.454778215160E+01   0.527248520600E+01
 MD| Potential energy [hartree]         -0.108204534093E+04  -0.106774767565E+04
 MD| Total kinetic energy [hartree]      0.235652990780E+03   0.224190491443E+03
 MD| QM kinetic energy [hartree]         0.117356561137E+00   0.116760484436E+00
 MD| Total temperature [K]                       295.427799           281.057767
 MD| QM temperature [K]                          363.315949           361.470597
 MD| ***************************************************************************

  Translating the system in order to center the QM fragment in the QM box.

 Number of electrons:                                                        180
 Number of occupied orbitals:                                                 90
 Number of molecular orbitals:                                                90

 Number of orbital functions:                                               1067
 Number of independent orbital functions:                                   1067

 Extrapolation method: ASPC


 SCF WAVEFUNCTION OPTIMIZATION

  ----------------------------------- OT ---------------------------------------
  Minimizer      : DIIS                : direct inversion
                                         in the iterative subspace
                                         using   7 DIIS vectors
                                         safer DIIS on
  Preconditioner : FULL_ALL            : diagonalization, state selective
  Precond_solver : DEFAULT
  stepsize       :    0.15000000                  energy_gap     :    0.08000000
  eps_taylor     :   0.10000E-15                  max_taylor     :             4
  ----------------------------------- OT ---------------------------------------

  Step     Update method      Time    Convergence         Total energy    Change
  ------------------------------------------------------------------------------
  Decoupling Energy:                                               0.0371654043
  Recoupling Energy:                                              -0.0063753270
     1 OT DIIS     0.15E+00    5.7     0.00026728      -254.3372977185 -2.54E+02
  Decoupling Energy:                                               0.0371743452
  Recoupling Energy:                                              -0.0063754109
     2 OT DIIS     0.15E+00    1.6     0.00010726      -254.3379918457 -6.94E-04
  Decoupling Energy:                                               0.0371689342
  Recoupling Energy:                                              -0.0063753549
     3 OT DIIS     0.15E+00    1.6     0.00004041      -254.3381206964 -1.29E-04
  Decoupling Energy:                                               0.0371715459
  Recoupling Energy:                                              -0.0063753820
     4 OT DIIS     0.15E+00    1.6     0.00001290      -254.3381306928 -1.00E-05
  Decoupling Energy:                                               0.0371702529
  Recoupling Energy:                                              -0.0063753692
     5 OT DIIS     0.15E+00    1.6     0.00000549      -254.3381315492 -8.56E-07
  Decoupling Energy:                                               0.0371705194
  Recoupling Energy:                                              -0.0063753713
     6 OT DIIS     0.15E+00    1.6     0.00000190      -254.3381316912 -1.42E-07
  Decoupling Energy:                                               0.0371705502
  Recoupling Energy:                                              -0.0063753719
     7 OT DIIS     0.15E+00    1.6     0.00000064      -254.3381317101 -1.90E-08

  *** SCF run converged in     7 steps ***


  Electronic density on regular grids:       -179.9999999999        0.0000000001
  Core density on regular grids:              180.9999999999       -0.0000000001
  Total charge density on r-space grids:        1.0000000000
  Total charge density g-space grids:           1.0000000000

  Overlap energy of the core charge distribution:               0.00002358458009
  Self energy of the core charge distribution:               -615.71576003586028
  Core Hamiltonian energy:                                    191.34733149866747
  Hartree energy:                                             247.97608910169146
  Exchange-correlation energy:                                -61.44936828456814
  Hartree-Fock Exchange energy:                               -18.13041805652839
  QM/MM Electrostatic energy:                                   1.63397048188876

  Total energy:                                              -254.33813171012909

  outer SCF iter =    1 RMS gradient =   0.64E-06 energy =       -254.3381317101
  outer SCF loop converged in   1 iterations or    7 steps

  Decoupling Energy:                                               0.0371704718
  Recoupling Energy:                                              -0.0063753710

 ENERGY| Total FORCE_EVAL ( QMMM ) energy [a.u.]:          -1079.714053412432577

 MD| ***************************************************************************
 MD| Step number                                                               4
 MD| Time [fs]                                                          4.000000
 MD| Conserved quantity [hartree]                            -0.842113595805E+03
 MD| ---------------------------------------------------------------------------
 MD|                                          Instantaneous             Averages
 MD| CPU time per MD step [s]                     63.334628            95.016398
 MD| Energy drift per atom [K]           0.125938636604E+02   0.710282981959E+01
 MD| Potential energy [hartree]         -0.107971405341E+04  -0.107073927009E+04
 MD| Total kinetic energy [hartree]      0.237600457607E+03   0.227542982984E+03
 MD| QM kinetic energy [hartree]         0.148329492634E+00   0.124652736486E+00
 MD| Total temperature [K]                       297.869252           285.260638
 MD| QM temperature [K]                          459.202876           385.903666
 MD| ***************************************************************************

  Translating the system in order to center the QM fragment in the QM box.

 Number of electrons:                                                        180
 Number of occupied orbitals:                                                 90
 Number of molecular orbitals:                                                90

 Number of orbital functions:                                               1067
 Number of independent orbital functions:                                   1067

 Extrapolation method: ASPC


 SCF WAVEFUNCTION OPTIMIZATION

  ----------------------------------- OT ---------------------------------------
  Minimizer      : DIIS                : direct inversion
                                         in the iterative subspace
                                         using   7 DIIS vectors
                                         safer DIIS on
  Preconditioner : FULL_ALL            : diagonalization, state selective
  Precond_solver : DEFAULT
  stepsize       :    0.15000000                  energy_gap     :    0.08000000
  eps_taylor     :   0.10000E-15                  max_taylor     :             4
  ----------------------------------- OT ---------------------------------------

  Step     Update method      Time    Convergence         Total energy    Change
  ------------------------------------------------------------------------------
  Decoupling Energy:                                               0.0372103176
  Recoupling Energy:                                              -0.0063758466
     1 OT DIIS     0.15E+00    5.6     0.00032145      -253.7449310956 -2.54E+02
  Decoupling Energy:                                               0.0372071430
  Recoupling Energy:                                              -0.0063758013
     2 OT DIIS     0.15E+00    1.6     0.00013165      -253.7458488612 -9.18E-04
  Decoupling Energy:                                               0.0372094830
  Recoupling Energy:                                              -0.0063758227
     3 OT DIIS     0.15E+00    1.6     0.00006244      -253.7460075086 -1.59E-04
  Decoupling Energy:                                               0.0372087615
  Recoupling Energy:                                              -0.0063758149
     4 OT DIIS     0.15E+00    1.6     0.00002442      -253.7460386488 -3.11E-05
  Decoupling Energy:                                               0.0372096209
  Recoupling Energy:                                              -0.0063758219
     5 OT DIIS     0.15E+00    1.6     0.00000525      -253.7460411955 -2.55E-06
  Decoupling Energy:                                               0.0372093100
  Recoupling Energy:                                              -0.0063758194
     6 OT DIIS     0.15E+00    1.6     0.00000252      -253.7460413394 -1.44E-07
  Decoupling Energy:                                               0.0372093046
  Recoupling Energy:                                              -0.0063758191
     7 OT DIIS     0.15E+00    1.6     0.00000089      -253.7460413716 -3.22E-08

  *** SCF run converged in     7 steps ***


  Electronic density on regular grids:       -180.0000000000       -0.0000000000
  Core density on regular grids:              180.9999999999       -0.0000000001
  Total charge density on r-space grids:        0.9999999998
  Total charge density g-space grids:           0.9999999998

  Overlap energy of the core charge distribution:               0.00001841790164
  Self energy of the core charge distribution:               -615.71576003586028
  Core Hamiltonian energy:                                    191.22472940994419
  Hartree energy:                                             248.04796129024885
  Exchange-correlation energy:                                -61.41798744183627
  Hartree-Fock Exchange energy:                               -18.11952188198048
  QM/MM Electrostatic energy:                                   2.23451886994920

  Total energy:                                              -253.74604137163317

  outer SCF iter =    1 RMS gradient =   0.89E-06 energy =       -253.7460413716
  outer SCF loop converged in   1 iterations or    7 steps

  Decoupling Energy:                                               0.0372093339
  Recoupling Energy:                                              -0.0063758194

 ENERGY| Total FORCE_EVAL ( QMMM ) energy [a.u.]:          -1094.307011227996099

 MD| ***************************************************************************
 MD| Step number                                                               5
 MD| Time [fs]                                                          5.000000
 MD| Conserved quantity [hartree]                            -0.848389414513E+03
 MD| ---------------------------------------------------------------------------
 MD|                                          Instantaneous             Averages
 MD| CPU time per MD step [s]                     63.763147            88.765747
 MD| Energy drift per atom [K]           0.792356763554E+00   0.584073520838E+01
 MD| Potential energy [hartree]         -0.109430701123E+04  -0.107545281832E+04
 MD| Total kinetic energy [hartree]      0.245917596715E+03   0.231217905730E+03
 MD| QM kinetic energy [hartree]         0.157566519902E+00   0.131235493169E+00
 MD| Total temperature [K]                       308.296084           289.867727
 MD| QM temperature [K]                          487.799141           406.282761
 MD| ***************************************************************************

  Translating the system in order to center the QM fragment in the QM box.

 Number of electrons:                                                        180
 Number of occupied orbitals:                                                 90
 Number of molecular orbitals:                                                90

 Number of orbital functions:                                               1067
 Number of independent orbital functions:                                   1067

 Extrapolation method: ASPC


 SCF WAVEFUNCTION OPTIMIZATION

  ----------------------------------- OT ---------------------------------------
  Minimizer      : DIIS                : direct inversion
                                         in the iterative subspace
                                         using   7 DIIS vectors
                                         safer DIIS on
  Preconditioner : FULL_ALL            : diagonalization, state selective
  Precond_solver : DEFAULT
  stepsize       :    0.15000000                  energy_gap     :    0.08000000
  eps_taylor     :   0.10000E-15                  max_taylor     :             4
  ----------------------------------- OT ---------------------------------------

  Step     Update method      Time    Convergence         Total energy    Change
  ------------------------------------------------------------------------------
  Decoupling Energy:                                               0.0372439828
  Recoupling Energy:                                              -0.0063762165
     1 OT DIIS     0.15E+00    5.6     0.00049027      -253.1925074108 -2.53E+02
  Decoupling Energy:                                               0.0372419888
  Recoupling Energy:                                              -0.0063762272
     2 OT DIIS     0.15E+00    1.6     0.00019248      -253.1946623789 -2.15E-03
  Decoupling Energy:                                               0.0372396478
  Recoupling Energy:                                              -0.0063761948
     3 OT DIIS     0.15E+00    1.6     0.00008094      -253.1950208402 -3.58E-04
  Decoupling Energy:                                               0.0372398692
  Recoupling Energy:                                              -0.0063761988
     4 OT DIIS     0.15E+00    1.6     0.00002273      -253.1950799069 -5.91E-05
  Decoupling Energy:                                               0.0372388086
  Recoupling Energy:                                              -0.0063761872
     5 OT DIIS     0.15E+00    1.6     0.00000845      -253.1950825154 -2.61E-06
  Decoupling Energy:                                               0.0372394789
  Recoupling Energy:                                              -0.0063761928
     6 OT DIIS     0.15E+00    1.6     0.00000290      -253.1950828788 -3.63E-07
  Decoupling Energy:                                               0.0372392326
  Recoupling Energy:                                              -0.0063761905
     7 OT DIIS     0.15E+00    1.6     0.00000086      -253.1950829201 -4.13E-08

  *** SCF run converged in     7 steps ***


  Electronic density on regular grids:       -180.0000000000       -0.0000000000
  Core density on regular grids:              180.9999999999       -0.0000000001
  Total charge density on r-space grids:        0.9999999999
  Total charge density g-space grids:           0.9999999999

  Overlap energy of the core charge distribution:               0.00001843302771
  Self energy of the core charge distribution:               -615.71576003586028
  Core Hamiltonian energy:                                    191.21895839581870
  Hartree energy:                                             248.05852714222300
  Exchange-correlation energy:                                -61.40902853862916
  Hartree-Fock Exchange energy:                               -18.11645374596468
  QM/MM Electrostatic energy:                                   2.76865542923683

  Total energy:                                              -253.19508292014794

  outer SCF iter =    1 RMS gradient =   0.86E-06 energy =       -253.1950829201
  outer SCF loop converged in   1 iterations or    7 steps

  Decoupling Energy:                                               0.0372392239
  Recoupling Energy:                                              -0.0063761903

 ENERGY| Total FORCE_EVAL ( QMMM ) energy [a.u.]:          -1057.339963836612242

 MD| ***************************************************************************
 MD| Step number                                                               6
 MD| Time [fs]                                                          6.000000
 MD| Conserved quantity [hartree]                            -0.842900321756E+03
 MD| ---------------------------------------------------------------------------
 MD|                                          Instantaneous             Averages
 MD| CPU time per MD step [s]                     63.276226            84.517494
 MD| Energy drift per atom [K]           0.111144468432E+02   0.671968714752E+01
 MD| Potential energy [hartree]         -0.105733996384E+04  -0.107243400924E+04
 MD| Total kinetic energy [hartree]      0.214439642080E+03   0.228421528455E+03
 MD| QM kinetic energy [hartree]         0.141133732219E+00   0.132885199677E+00
 MD| Total temperature [K]                       268.833556           286.362032
 MD| QM temperature [K]                          436.926025           411.389972
 MD| ***************************************************************************

 -------------------------------------------------------------------------------
 -                                                                             -
 -                                DBCSR STATISTICS                             -
 -                                                                             -
 -------------------------------------------------------------------------------
 COUNTER                                    TOTAL       BLAS       SMM       ACC
 flops     9 x    26 x    26              2810808       0.0%    100.0%      0.0%
 flops    22 x    26 x    26              7287280       0.0%    100.0%      0.0%
 flops     9 x    32 x    32              8515584       0.0%    100.0%      0.0%
 flops    26 x    26 x    26             13182000       0.0%    100.0%      0.0%
 flops    22 x    32 x    32             22077440       0.0%    100.0%      0.0%
 flops    26 x    26 x    32             32448000       0.0%    100.0%      0.0%
 flops    26 x    32 x    26             32448000       0.0%    100.0%      0.0%
 flops    32 x    26 x    26             32448000       0.0%    100.0%      0.0%
 flops    98 x    26 x    26             37098880       0.0%    100.0%      0.0%
 flops    26 x    26 x    31             38726688       0.0%    100.0%      0.0%
 flops    26 x    26 x    40             62462400       0.0%    100.0%      0.0%
 flops    88 x    26 x    26             66626560       0.0%    100.0%      0.0%
 flops    89 x    26 x    26             67383680       0.0%    100.0%      0.0%
 flops    98 x    26 x    31             79619904       0.0%    100.0%      0.0%
 flops    32 x    32 x    26             79872000       0.0%    100.0%      0.0%
 flops    26 x    32 x    32             79872000       0.0%    100.0%      0.0%
 flops    32 x    26 x    32             79872000       0.0%    100.0%      0.0%
 flops    98 x    26 x    32             91320320       0.0%    100.0%      0.0%
 flops    98 x    32 x    26             91320320       0.0%    100.0%      0.0%
 flops    26 x    32 x    31             95327232       0.0%    100.0%      0.0%
 flops    32 x    26 x    31             95327232       0.0%    100.0%      0.0%
 flops    93 x    26 x    26            105618240       0.0%    100.0%      0.0%
 flops    26 x    26 x    53            115867752       0.0%    100.0%      0.0%
 flops    84 x    26 x    26            127196160       0.0%    100.0%      0.0%
 flops    98 x    26 x    40            128419200       0.0%    100.0%      0.0%
 flops    88 x    26 x    31            142990848       0.0%    100.0%      0.0%
 flops    89 x    26 x    31            144615744       0.0%    100.0%      0.0%
 flops    26 x    32 x    40            153753600       0.0%    100.0%      0.0%
 flops    32 x    26 x    40            153753600       0.0%    100.0%      0.0%
 flops    88 x    32 x    26            164003840       0.0%    100.0%      0.0%
 flops    88 x    26 x    32            164003840       0.0%    100.0%      0.0%
 flops     9 x     9 x    26            165405240       0.0%    100.0%      0.0%
 flops    89 x    26 x    32            165867520       0.0%    100.0%      0.0%
 flops    89 x    32 x    26            165867520       0.0%    100.0%      0.0%
 flops    98 x    32 x    31            195987456       0.0%    100.0%      0.0%
 flops    32 x    32 x    32            196608000       0.0%    100.0%      0.0%
 flops    98 x    32 x    32            224788480       0.0%    100.0%      0.0%
 flops    93 x    26 x    31            226672992       0.0%    100.0%      0.0%
 flops    88 x    26 x    40            230630400       0.0%    100.0%      0.0%
 flops    89 x    26 x    40            233251200       0.0%    100.0%      0.0%
 flops    32 x    32 x    31            234651648       0.0%    100.0%      0.0%
 flops    98 x    26 x    53            238217616       0.0%    100.0%      0.0%
 flops    93 x    26 x    32            259983360       0.0%    100.0%      0.0%
 flops    93 x    32 x    26            259983360       0.0%    100.0%      0.0%
 flops    84 x    26 x    31            272982528       0.0%    100.0%      0.0%
 flops    26 x    32 x    53            285212928       0.0%    100.0%      0.0%
 flops    32 x    26 x    53            285212928       0.0%    100.0%      0.0%
 flops    84 x    26 x    32            313098240       0.0%    100.0%      0.0%
 flops    84 x    32 x    26            313098240       0.0%    100.0%      0.0%
 flops    98 x    32 x    40            316108800       0.0%    100.0%      0.0%
 flops    88 x    32 x    31            351977472       0.0%    100.0%      0.0%
 flops    89 x    32 x    31            355977216       0.0%    100.0%      0.0%
 flops    93 x    26 x    40            365601600       0.0%    100.0%      0.0%
 flops    32 x    32 x    40            378470400       0.0%    100.0%      0.0%
 flops    88 x    32 x    32            403701760       0.0%    100.0%      0.0%
 flops     9 x     9 x    32            407151360       0.0%    100.0%      0.0%
 flops    89 x    32 x    32            408289280       0.0%    100.0%      0.0%
 flops    22 x     9 x    26            415855440       0.0%    100.0%      0.0%
 flops     9 x    22 x    26            416576160       0.0%    100.0%      0.0%
 flops    88 x    26 x    53            427819392       0.0%    100.0%      0.0%
 flops    89 x    26 x    53            432680976       0.0%    100.0%      0.0%
 flops    84 x    26 x    40            440294400       0.0%    100.0%      0.0%
 flops    93 x    32 x    31            557964288       0.0%    100.0%      0.0%
 flops    88 x    32 x    40            567705600       0.0%    100.0%      0.0%
 flops    89 x    32 x    40            574156800       0.0%    100.0%      0.0%
 flops    98 x    32 x    53            586381824       0.0%    100.0%      0.0%
 flops    93 x    32 x    32            639959040       0.0%    100.0%      0.0%
 flops    84 x    32 x    31            671956992       0.0%    100.0%      0.0%
 flops    93 x    26 x    53            678190968       0.0%    100.0%      0.0%
 flops    32 x    32 x    53            702062592       0.0%    100.0%      0.0%
 flops    84 x    32 x    32            770703360       0.0%    100.0%      0.0%
 flops     9 x    26 x     9            802701900       0.0%    100.0%      0.0%
 flops    84 x    26 x    53            816746112       0.0%    100.0%      0.0%
 flops    93 x    32 x    40            899942400       0.0%    100.0%      0.0%
 flops    22 x     9 x    32           1023644160       0.0%    100.0%      0.0%
 flops     9 x    22 x    32           1025418240       0.0%    100.0%      0.0%
 flops    88 x    32 x    53           1053093888       0.0%    100.0%      0.0%
 flops    89 x    32 x    53           1065060864       0.0%    100.0%      0.0%
 flops    84 x    32 x    40           1083801600       0.0%    100.0%      0.0%
 flops    22 x    22 x    26           1109908800       0.0%    100.0%      0.0%
 flops    93 x    32 x    53           1669393152       0.0%    100.0%      0.0%
 flops     9 x    32 x     9           1975881600       0.0%    100.0%      0.0%
 flops    84 x    32 x    53           2010451968       0.0%    100.0%      0.0%
 flops     9 x    26 x    22           2081079000       0.0%    100.0%      0.0%
 flops    22 x    26 x     9           2081079000       0.0%    100.0%      0.0%
 flops    22 x    22 x    32           2732083200       0.0%    100.0%      0.0%
 flops    22 x    32 x     9           5122656000       0.0%    100.0%      0.0%
 flops     9 x    32 x    22           5122656000       0.0%    100.0%      0.0%
 flops    22 x    26 x    22           5395390000       0.0%    100.0%      0.0%
 flops    22 x    32 x    22          13280960000       0.0%    100.0%      0.0%
 flops inhomo. stacks                 11847306240     100.0%      0.0%      0.0%
 flops total                        79.852629E+09      14.8%     85.2%      0.0%
 flops max/rank                      2.638091E+09      19.0%     81.0%      0.0%
 matmuls inhomo. stacks                     52920     100.0%      0.0%      0.0%
 matmuls total                            3120813       1.7%     98.3%      0.0%
 number of processed stacks                867597       6.1%     93.9%      0.0%
 average stack size                                     1.0       3.8       0.0
 marketing flops                    85.649244E+09
 -------------------------------------------------------------------------------
 # multiplications                           1271
 max memory usage/rank               1.637421E+09
 # max total images/rank                        2
 # max 3D layers                                1
 # MPI messages exchanged                16472160
 MPI messages size (bytes):
  total size                        79.557550E+09
  min size                           0.000000E+00
  max size                          41.552000E+03
  average size                       4.829819E+03
 MPI breakdown and total messages size (bytes):
             size <=      128            13180719                        0
       128 < size <=     8192              276681               2024273184
      8192 < size <=    32768             2073232              43072252608
     32768 < size <=   131072              941528              34461974008
    131072 < size <=  4194304                   0                        0
   4194304 < size <= 16777216                   0                        0
  16777216 < size                               0                        0
 -------------------------------------------------------------------------------

 *** WARNING in dbcsr_mm.F:294 :: Using a non-square number of MPI ranks ***
 *** might lead to poor performance. Used ranks: 288 Suggested: 289 576  ***

 -------------------------------------------------------------------------------
 -                                                                             -
 -                      DBCSR MESSAGE PASSING PERFORMANCE                      -
 -                                                                             -
 -------------------------------------------------------------------------------
 ROUTINE             CALLS      AVE VOLUME [Bytes]
 MP_Bcast               91                     12.
 MP_Allreduce         6855                      9.
 MP_Alltoall          5314                 113576.
 MP_ISend           120524                   3968.
 MP_IRecv           120062                   3814.
 -------------------------------------------------------------------------------

 -------------------------------------------------------------------------------
 -                                                                             -
 -                                GRID STATISTICS                              -
 -                                                                             -
 -------------------------------------------------------------------------------
 LP    KERNEL             BACKEND                              COUNT     PERCENT
 2     collocate ortho    REF                                1126269      18.39%
 2     integrate ortho    REF                                1106014      18.05%
 1     collocate ortho    REF                                 943978      15.41%
 1     integrate ortho    REF                                 870340      14.21%
 3     integrate ortho    REF                                 570062       9.31%
 3     collocate ortho    REF                                 500530       8.17%
 0     collocate ortho    REF                                 281245       4.59%
 0     integrate ortho    REF                                 249988       4.08%
 0     collocate general  REF                                 137088       2.24%
 1     integrate general  REF                                 137088       2.24%
 4     integrate ortho    REF                                 121240       1.98%
 4     collocate ortho    REF                                  73823       1.21%
 5     integrate ortho    REF                                   8201       0.13%
 -------------------------------------------------------------------------------

 MEMORY| Estimated peak process memory [MiB]                                1637

 -------------------------------------------------------------------------------
 -                                                                             -
 -                         MESSAGE PASSING PERFORMANCE                         -
 -                                                                             -
 -------------------------------------------------------------------------------

 ROUTINE             CALLS      AVE VOLUME [Bytes]
 MP_Group                8
 MP_Bcast             6935               10576282.
 MP_Allreduce         2536                1620764.
 MP_Sync               409
 MP_Alltoall          1344                3951601.
 MP_ISendRecv       118531                  28613.
 MP_Wait            134330
 MP_comm_split          14
 MP_ISend            14063                 123795.
 MP_IRecv            14238                 121884.
 MP_Recv               154                  34144.
 -------------------------------------------------------------------------------


 -------------------------------------------------------------------------------
 -                                                                             -
 -                           R E F E R E N C E S                               -
 -                                                                             -
 -------------------------------------------------------------------------------
 
 CP2K version 8.1, the CP2K developers group (2020).
 CP2K is freely available from https://www.cp2k.org/ .

 Kuehne,Thomas D.; Iannuzzi,Marcella; Del Ben,Mauro;
 Rybkin,Vladimir V.; Seewald,Patrick; Stein,Frederick; Laino,Teodoro;
 Khaliullin,Rustam Z.; Schuett,Ole; Schiffmann,Florian; Golze,Dorothea;
 Wilhelm,Jan; Chulkov,Sergey; Bani-Hashemian,Mohammad Hossein;
 Weber,Valery; Borstnik,Urban; Taillefumier,Mathieu;
 Jakobovits,Alice Shoshana; Lazzaro,Alfio; Pabst,Hans; Mueller,Tiziano;
 Schade,Robert; Guidon,Manuel; Andermatt,Samuel; Holmberg,Nico;
 Schenter,Gregory K.; Hehn,Anna; Bussy,Augustin; Belleflamme,Fabian;
 Tabacchi,Gloria; Gloess,Andreas; Lass,Michael; Bethune,Iain;
 Mundy,Christopher J.; Plessl,Christian; Watkins,Matt;
 VandeVondele,Joost; Krack,Matthias; Hutter,Juerg. 
 The Journal of Chemical Physics, 152 (19), (2020). 
 CP2K: An electronic structure and molecular dynamics software package -
 Quickstep: Efficient and accurate electronic structure calculations.
 https://doi.org/10.1063/5.0007045

 Schuett, Ole; Messmer, Peter; Hutter, Juerg; VandeVondele, Joost. 
 Electronic Structure Calculations on Graphics Processing Units, John
 Wiley & Sons, Ltd, 173-190 (2016). 
 GPU-Accelerated Sparse Matrix-Matrix Multiplication for
 Linear Scaling Density Functional Theory.
 https://doi.org/10.1002/9781118670712.ch8

 Borstnik, U; VandeVondele, J; Weber, V; Hutter, J. 
 PARALLEL COMPUTING, 40 (5-6), 47-58 (2014). 
 Sparse matrix multiplication: The distributed block-compressed sparse
 row library.
 https://doi.org/10.1016/j.parco.2014.03.012

 Hutter, J; Iannuzzi, M; Schiffmann, F; VandeVondele, J. 
 WIREs Comput Mol Sci., 4 (1), 15-25 (2014). 
 CP2K: atomistic simulations of condensed matter systems.
 https://doi.org/10.1002/wcms.1159

 Marek, A; Blum, V; Johanni, R; Havu, V; Lang, B; Auckenthaler, T;
 Heinecke, A; Bungartz, H; Lederer, H. 
 Journal of Physics: Condensed Matter, 26 (21), (2014). 
 The ELPA library: scalable parallel eigenvalue solutions for
 electronic structure
 theory and computational science.
 https://doi.org/10.1088/0953-8984/26/21/213201

 Guidon, M; Hutter, J; VandeVondele, J. 
 JOURNAL OF CHEMICAL THEORY AND COMPUTATION, 5 (11), 3010-3021 (2009). 
 Robust Periodic Hartree-Fock Exchange for Large-Scale Simulations Using
 Gaussian Basis Sets.
 https://doi.org/10.1021/ct900494g

 Guidon, M; Schiffmann, F; Hutter, J; VandeVondele, J. 
 JOURNAL OF CHEMICAL PHYSICS, 128 (21), 214104 (2008). 
 Ab initio molecular dynamics using hybrid density functionals.
 https://doi.org/10.1063/1.2931945

 Kuhne, TD; Krack, M; Mohamed, FR; Parrinello, M. 
 PHYSICAL REVIEW LETTERS, 98 (6), 066401 (2007). 
 Efficient and accurate Car-Parrinello-like approach to
 Born-Oppenheimer molecular dynamics.
 https://doi.org/10.1103/PhysRevLett.98.066401

 Laino, T; Mohamed, F; Laio, A; Parrinello, M. 
 JOURNAL OF CHEMICAL THEORY AND COMPUTATION, 2 (5), 1370-1378 (2006). 
 An efficient linear-scaling electrostatic coupling for treating
 periodic boundary conditions in QM/MM simulations.
 https://doi.org/10.1021/ct6001169

 Laino, T; Mohamed, F; Laio, A; Parrinello, M. 
 JOURNAL OF CHEMICAL THEORY AND COMPUTATION, 1 (6), 1176-1184 (2005). 
 An efficient real space multigrid QM/MM electrostatic coupling.
 https://doi.org/10.1021/ct050123f

 Krack, M. 
 THEORETICAL CHEMISTRY ACCOUNTS, 114 (1-3), 145-152 (2005). 
 Pseudopotentials for H to Kr optimized for gradient-corrected
 exchange-correlation functionals.
 https://doi.org/10.1007/s00214-005-0655-y

 VandeVondele, J; Krack, M; Mohamed, F; Parrinello, M; Chassaing, T;
 Hutter, J. COMPUTER PHYSICS COMMUNICATIONS, 167 (2), 103-128 (2005). 
 QUICKSTEP: Fast and accurate density functional calculations using a
 mixed Gaussian and plane waves approach.
 https://doi.org/10.1016/j.cpc.2004.12.014

 Frigo, M; Johnson, SG. 
 PROCEEDINGS OF THE IEEE, 93 (2), 216-231 (2005). 
 The design and implementation of FFTW3.
 https://doi.org/10.1109/JPROC.2004.840301

 Kolafa, J. 
 JOURNAL OF COMPUTATIONAL CHEMISTRY, 25 (3), 335-342 (2004). 
 Time-reversible always stable predictor-corrector method for molecular dynamics of polarizable molecules.
 https://doi.org/10.1002/jcc.10385

 VandeVondele, J; Hutter, J. 
 JOURNAL OF CHEMICAL PHYSICS, 118 (10), 4365-4369 (2003). 
 An efficient orbital transformation method for electronic structure
 calculations.
 https://doi.org/10.1063/1.1543154

 Hartwigsen, C; Goedecker, S; Hutter, J. 
 PHYSICAL REVIEW B, 58 (7), 3641-3662 (1998). 
 Relativistic separable dual-space Gaussian pseudopotentials from H to Rn.
 https://doi.org/10.1103/PhysRevB.58.3641

 Lippert, G; Hutter, J; Parrinello, M. 
 MOLECULAR PHYSICS, 92 (3), 477-487 (1997). 
 A hybrid Gaussian and plane wave density functional scheme.
 https://doi.org/10.1080/002689797170220

 Perdew, JP; Burke, K; Ernzerhof, M. 
 PHYSICAL REVIEW LETTERS, 77 (18), 3865-3868 (1996). 
 Generalized gradient approximation made simple.
 https://doi.org/10.1103/PhysRevLett.77.3865

 Goedecker, S; Teter, M; Hutter, J. 
 PHYSICAL REVIEW B, 54 (3), 1703-1710 (1996). 
 Separable dual-space Gaussian pseudopotentials.
 https://doi.org/10.1103/PhysRevB.54.1703

 ESSMANN, U; PERERA, L; BERKOWITZ, ML; DARDEN, T; LEE, H; PEDERSEN, LG. 
 JOURNAL OF CHEMICAL PHYSICS, 103 (19), 8577-8593 (1995). 
 A SMOOTH PARTICLE MESH EWALD METHOD.
 https://doi.org/10.1063/1.470117

 BLOCHL, PE. 
 JOURNAL OF CHEMICAL PHYSICS, 103 (17), 7422-7428 (1995). 
 ELECTROSTATIC DECOUPLING OF PERIODIC IMAGES OF PLANE-WAVE-EXPANDED
 DENSITIES AND DERIVED ATOMIC POINT CHARGES.
 https://doi.org/10.1063/1.470314


 -------------------------------------------------------------------------------
 -                                                                             -
 -                                T I M I N G                                  -
 -                                                                             -
 -------------------------------------------------------------------------------
 SUBROUTINE                       CALLS  ASD         SELF TIME        TOTAL TIME
                                MAXIMUM       AVERAGE  MAXIMUM  AVERAGE  MAXIMUM
 CP2K                                 1  1.0    0.552    0.581  574.573  574.577
 qs_mol_dyn_low                       1  2.0    0.019    0.023  508.388  510.403
 velocity_verlet                      6  3.0    0.092    0.094  415.266  415.291
 qs_forces                            7  3.9    0.001    0.002  293.273  293.322
 rebuild_ks_matrix                   63  8.5    0.000    0.000  218.877  218.907
 qs_ks_build_kohn_sham_matrix        63  9.5    0.008    0.010  218.877  218.907
 qs_energies                          7  4.9    0.001    0.001  176.162  176.210
 hfx_ks_matrix                       63 10.5    0.002    0.002  175.945  175.946
 scf_env_do_scf                       7  5.9    0.000    0.001  154.449  154.449
 qs_ks_update_qs_env_forces           7  4.9    0.000    0.000  116.961  116.965
 qmmm_forces                          7  3.9    0.087    0.092  116.646  116.662
 qmmm_forces_with_gaussian            7  4.9    0.038    0.057  114.081  115.730
 scf_env_do_scf_inner_loop           56  6.8    0.002    0.004  111.569  111.593
 derivatives_four_center              7  8.9    0.018    0.392  107.586  107.586
 derivatives_four_center_main         7  9.9    0.002    0.002  106.862  106.862
 derivatives_four_center_bin        525 10.9   98.449  106.120   98.449  106.120
 qs_ks_update_qs_env                 63  7.8    0.000    0.001  101.922  101.949
 qmmm_el_coupling                     7  3.9    0.000    0.000   87.906   88.796
 qmmm_elec_with_gaussian              7  4.9    0.016    0.025   87.901   88.792
 integrate_four_center               63 11.5    0.287    0.693   68.353   68.354
 qmmm_env_create                      1  2.0   16.437   18.110   63.434   63.441
 pw_restrict_s3                      21  5.9   24.959   25.335   61.471   62.188
 integrate_four_center_main          63 12.5    0.016    0.018   60.348   61.365
 integrate_four_center_bin         4126 13.5   60.332   61.349   60.332   61.349
 qmmm_elec_with_gaussian:spline       7  5.9    0.000    0.000   47.525   48.434
 pw_prolongate_s3                    21  6.9   18.740   19.106   47.525   48.433
 pw_transfer                       1337 12.0    0.081    0.108   44.109   47.052
 fft_wrap_pw1pw2                   1113 13.1    0.012    0.015   43.772   46.724
 fft_wrap_pw1pw2_200                707 14.4    1.078    1.325   42.376   45.540
 fft3d_ps                          1113 15.1    7.723   11.817   40.851   43.636
 qmmm_force_with_gaussian_low         7  5.9    0.000    0.000   42.545   43.331
 init_scf_loop                        7  6.9    0.000    0.000   42.851   42.860
 pw_integral_ab                    2967  7.5   39.490   40.859   40.114   41.545
 fist_init                            1  3.0    0.001    0.005   40.032   40.032
 qmmm_forces_gaussian_low_R           7  6.9    0.000    0.000   36.175   36.848
 qmmm_forces_with_gaussian_LG         7  7.9   36.175   36.848   36.175   36.848
 mp_alltoall_z22v                  1113 17.1   31.767   34.047   31.767   34.047
 qmmm_elec_with_gaussian_low          7  5.9    0.000    0.000   28.171   29.099
 write_mo_set_to_restart             56  7.8    0.101   28.859   28.880   28.896
 write_mo_set_low                     7  8.9    0.000    0.005   28.765   28.866
 cp_fm_write_unformatted              7  9.9   28.765   28.866   28.765   28.866
 yz_to_x                            518 15.7    0.435    0.487   26.032   28.121
 qmmm_elec_gaussian_low_R             7  6.9    0.000    0.000   24.647   25.556
 qmmm_elec_with_gaussian_LG           7  7.9   24.647   25.556   24.647   25.556
 mp_sum_dm3                          38  5.7   22.711   24.051   22.711   24.051
 force_field_control                  1  4.0    0.000    0.001   22.581   23.542
 rs_pw_transfer                     546 11.8    0.010    0.013   22.306   23.131
 qs_rho_update_rho                   63  7.9    0.000    0.000   22.016   22.040
 calculate_rho_elec                  63  8.9    0.035    0.062   22.015   22.040
 density_rs2pw                       63  9.9    0.004    0.005   19.300   20.344
 qs_vxc_create                       63 10.5    0.001    0.002   19.842   19.848
 xc_vxc_pw_create                    63 11.5    0.156    0.198   19.841   19.846
 rdparm_amber_8                       2  6.5   14.405   15.567   18.302   19.180
 qs_energies_init_hamiltonians        7  5.9    0.000    0.001   18.959   19.008
 qs_env_update_s_mstruct              7  6.9    0.000    0.000   18.901   18.935
 sum_up_and_integrate                63 10.5    0.037    0.065   18.866   18.927
 integrate_v_rspace                  63 11.5    0.002    0.003   18.828   18.893
 calculate_rho_core                   7  7.9    0.006    0.031   17.798   18.718
 topology_control                     1  4.0    0.000    0.000   16.296   17.698
 force_field_pack                     1  5.0    0.022    0.027   13.810   14.646
 mp_waitany                       14595 13.7   12.726   14.346   12.726   14.346
 rs_pw_transfer_RS2PW_200            70 11.7    1.493    1.928    8.635   12.768
 grid_collocate_task_list            63  9.9    2.065   12.703    2.065   12.703
 -------------------------------------------------------------------------------

 The number of warnings for this run is : 1
 
 -------------------------------------------------------------------------------
  **** **** ******  **  PROGRAM ENDED AT                 2021-04-19 14:17:33.955
 ***** ** ***  *** **   PROGRAM RAN ON                                    r1i1n8
 **    ****   ******    PROGRAM RAN BY                                    hollyj
 ***** **    ** ** **   PROGRAM PROCESS ID                                 18899
  **** **  *******  **  PROGRAM STOPPED IN /lustre/home/w68/hollyj/CP2K/Cirrus/C
                                           PU/cp2kMD/CBD_PHY-PBE0/6STEPS/8NODES/
                                           36CPN/1THREADS
