 DBCSR| CPU Multiplication driver                                           XSMM
 DBCSR| Multrec recursion limit                                              512
 DBCSR| Multiplication stack size                                          30000
 DBCSR| Maximum elements for images                                    UNLIMITED
 DBCSR| Multiplicative factor virtual images                                   1
 DBCSR| Use multiplication densification                                       F
 DBCSR| Multiplication size stacks                                             3
 DBCSR| Use memory pool for CPU allocation                                     F
 DBCSR| Number of 3D layers                                               SINGLE
 DBCSR| Use MPI memory allocation                                              F
 DBCSR| Use RMA algorithm                                                      F
 DBCSR| Use Communication thread                                               T
 DBCSR| Communication thread load                                             53
 DBCSR| MPI: My node id                                                        0
 DBCSR| MPI: Number of nodes                                                  32
 DBCSR| OMP: Current number of threads                                        10
 DBCSR| OMP: Max number of threads                                            10
 DBCSR| ACC: Number of devices/node                                            4
 DBCSR| ACC: Number of priority stack-buffers                                 40
 DBCSR| ACC: Number of posterior stack-buffers                                80
 DBCSR| ACC: Number of priority streams                                        4
 DBCSR| ACC: Number of posterior streams                                       4
 DBCSR| ACC: Avoid driver after busy                                           F
 DBCSR| ACC: Process inhomogeneous stacks                                      T
 DBCSR| ACC: Min. flop for processing                                          0
 DBCSR| ACC: Min. flop for sorting                                          4000
 DBCSR| ACC: Number of binning bins                                         4096
 DBCSR| ACC: Size of binning bins                                             16
 DBCSR| Split modifier for TAS multiplication algorithm                  1.0E+00


  **** **** ******  **  PROGRAM STARTED AT               2021-07-26 13:58:05.892
 ***** ** ***  *** **   PROGRAM STARTED ON                                r2i4n0
 **    ****   ******    PROGRAM STARTED BY                                hollyj
 ***** **    ** ** **   PROGRAM PROCESS ID                                 65720
  **** **  *******  **  PROGRAM STARTED IN /lustre/home/w68/hollyj/CP2K/Cirrus/G
                                           PU/cp2kMD/ClC-253-BLYP/1STEPS/8NODES/
                                           36CPN/10THREADS

 CP2K| version string:                                          CP2K version 8.2
 CP2K| source code revision number:                                  git:310b7ab
 CP2K| cp2kflags: omp libint fftw3 libxc elpa parallel mpi3 scalapack cosma pw_c
 CP2K|            uda xsmm cuda_profiling dbcsr_acc spglib mkl grid_cuda
 CP2K| is freely available from                            https://www.cp2k.org/
 CP2K| Program compiled at                          Thu Jul 22 18:07:58 BST 2021
 CP2K| Program compiled on                                                r2i5n7
 CP2K| Program compiled for                                           Cirrus-gcc
 CP2K| Data directory path       /lustre/home/w68/hollyj/CP2K/v8.2/cp2k-8.2/data
 CP2K| Input file name                                          ClC-253-cp2k.inp

 GLOBAL| Force Environment number                                              1
 GLOBAL| Basis set file name                                        BASIS_MOLOPT
 GLOBAL| Potential file name                                           POTENTIAL
 GLOBAL| MM Potential file name                                     MM_POTENTIAL
 GLOBAL| Coordinate file name                                            ClC.pdb
 GLOBAL| Method name                                                        CP2K
 GLOBAL| Project name                                               ClC-253-BLYP
 GLOBAL| Run type                                                             MD
 GLOBAL| FFT library                                                       FFTW3
 GLOBAL| Diagonalization library                                            ELPA
 GLOBAL| Minimum number of eigenvectors for ELPA usage                        16
 GLOBAL| Orthonormality check for eigenvectors                          DISABLED
 GLOBAL| Matrix multiplication library                                     COSMA
 GLOBAL| All-to-all communication in single precision                          F
 GLOBAL| FFTs using library dependent lengths                                  F
 GLOBAL| Grid backend                                                       AUTO
 GLOBAL| Global print level                                                  LOW
 GLOBAL| MPI I/O enabled                                                       T
 GLOBAL| Total number of message passing processes                            32
 GLOBAL| Number of threads for this process                                   10
 GLOBAL| This output is from process                                           0
 GLOBAL| CPU model name                 Intel(R) Xeon(R) Gold 6248 CPU @ 2.50GHz
 GLOBAL| CPUID                                                              1003

 MEMORY| system memory details [Kb]
 MEMORY|                        rank 0           min           max       average
 MEMORY| MemTotal            394535408     394535408     394535408     394535408
 MEMORY| MemFree             387572948     387407776     387801980     387646187
 MEMORY| Buffers                     0             0             0             0
 MEMORY| Cached                 778236        745908        778236        756303
 MEMORY| Slab                   918524        821844        919020        881311
 MEMORY| SReclaimable           167676        150444        169868        162761
 MEMORY| MemLikelyFree       388518860     388325732     388707744     388565252



                      ************* ******** ***********   
                     ************* **********************  
                     ****     **** ****      ***********   
                     ******** ****  *******     ****       
                     *******  ****   *******   ****        
                     ****     ****       ****  ****        
                     ****     **** **********  ****        
                      ****     **** ********    ****       
                     FRONTIERS IN SIMULATION TECHNOLOGY    
                                                           
                        C.J. Mundy, S. Balasubramanian,    
                     Ken Bagchi, J. Hutter, Ari Seitsonen  
                      IFW Kuo, T. Laino, J. VandeVondele   
                                 Version 1.0               

                                                           


 EWALD| Summation is done by:                                               SPME
 EWALD| Alpha parameter [       ANGSTROM^-1]                              0.4000
 EWALD| Real Space Cutoff [          ANGSTROM]                            8.4348
 EWALD| G-space max. Miller index                         80        80        80
 EWALD| Spline interpolation order                                             6

 FORCEFIELD| WARNING: A non Critical ForceField parameter is missing! CP2K GOES!
 FORCEFIELD| Non critical parameters are:Urey-Bradley,Torsions,Impropers, Opbends and 1-4
 FORCEFIELD| All missing parameters will not contribute to the potential energy!
 FORCEFIELD| Activate the print key FF_INFO to have a list of missing parameters

 CHARGE_INFO| Total Charge of the Classical System:                     2.369895

 SPLINE_INFO| Generating 85491 splines for NONBONDED14 interactions 
              Due to 413 different atomic kinds
  ...8549  ...17098  ...25647  ...34196  ...42745  ...51294  ...59843  ...68392  ...76941  ...85490
 SPLINE_INFO| Number of unique splines computed:            254
 SPLINE_INFO| Done

 SPLINE_INFO| Generating 85491 splines for NONBONDED interactions 
              Due to 413 different atomic kinds
  ...8549  ...17098  ...25647  ...34196  ...42745  ...51294  ...59843  ...68392  ...76941  ...85490
 SPLINE_INFO| Number of unique splines computed:            254
 SPLINE_INFO| Done

 *******************************************************************************
 *******************************************************************************
 **                                                                           **
 **     #####                         ##              ##                      **
 **    ##   ##            ##          ##              ##                      **
 **   ##     ##                       ##            ######                    **
 **   ##     ##  ##   ##  ##   #####  ##  ##   ####   ##    #####    #####    **
 **   ##     ##  ##   ##  ##  ##      ## ##   ##      ##   ##   ##  ##   ##   **
 **   ##  ## ##  ##   ##  ##  ##      ####     ###    ##   ######   ######    **
 **    ##  ###   ##   ##  ##  ##      ## ##      ##   ##   ##       ##        **
 **     #######   #####   ##   #####  ##  ##  ####    ##    #####   ##        **
 **           ##                                                    ##        **
 **                                                                           **
 **                                                ... make the atoms dance   **
 **                                                                           **
 **            Copyright (C) by CP2K developers group (2000-2021)             **
 **                      J. Chem. Phys. 152, 194103 (2020)                    **
 **                                                                           **
 *******************************************************************************


 TOTAL NUMBERS AND MAXIMUM NUMBERS

  Total number of            - Atomic kinds:                                   6
                             - Atoms:                                        253
                             - Shell sets:                                   253
                             - Shells:                                       991
                             - Primitive Cartesian functions:               1770
                             - Cartesian basis functions:                   2309
                             - Spherical basis functions:                   2193

  Maximum angular momentum of- Orbital basis functions:                        2
                             - Local part of the GTH pseudopotential:          2
                             - Non-local part of the GTH pseudopotential:      2


 SCF PARAMETERS         Density guess:                                   RESTART
                        --------------------------------------------------------
                        max_scf:                                             300
                        max_scf_history:                                       0
                        max_diis:                                              4
                        --------------------------------------------------------
                        eps_scf:                                        1.00E-06
                        eps_scf_history:                                0.00E+00
                        eps_diis:                                       1.00E-01
                        eps_eigval:                                     1.00E-05
                        --------------------------------------------------------
                        level_shift [a.u.]:                                 0.00
                        --------------------------------------------------------
                        No outer SCF

 *******************************************************************************
 *******************************************************************************
 **                                                                           **
 **             #######  ##     ## ##     ## ##     ##                        **
 **            ##     ## ###   ### ###   ### ###   ###                        **
 **            ##     ## #### #### #### #### #### ####                        **
 **            ##     ## ## ### ## ## ### ## ## ### ##                        **
 **            ##  ## ## ##     ## ##     ## ##     ##                        **
 **            ##    ##  ##     ## ##     ## ##     ##  T.Laino and F.Mohamed **
 **             ##### ## ##     ## ##     ## ##     ##  2005 - 2015           **
 **                                                                           **
 **                                                     Calculation Started.. **
 *******************************************************************************
 *******************************************************************************

 MD_PAR| Molecular dynamics protocol (MD input parameters)
 MD_PAR| Ensemble type                                                       NVE
 MD_PAR| Number of time steps                                                  1
 MD_PAR| Time step [fs]                                                 1.000000
 MD_PAR| Temperature [K]                                              300.000000
 MD_PAR| Temperature tolerance [K]                                      0.000000
 MD_PAR| Print MD information every                                    1 step(s)
 MD_PAR| File type   Print frequency [steps]                          File names
 MD_PAR| Coordinates          1                           ClC-253-BLYP-pos-1.xyz
 MD_PAR| Velocities           1                           ClC-253-BLYP-vel-1.xyz
 MD_PAR| Energies             1                              ClC-253-BLYP-1.ener
 MD_PAR| Dump                20                           ClC-253-BLYP-1.restart

 ROT| Rotational analysis information
 ROT| Principal axes and moments of inertia [a.u.]
 ROT|                           1                   2                   3
 ROT| Eigenvalues      6.49908278768+119   9.69266118148+120   9.76757630270+120
 ROT|      x              0.966767624107     -0.244635852463     -0.074254027960
 ROT|      y             -0.214972405609     -0.620674029844     -0.754022952902
 ROT|      z             -0.138373501094     -0.744927545716      0.652637514880
 ROT| Number of rotovibrational vectors                                        6

 DOF| Calculation of degrees of freedom
 DOF| Number of atoms                                                     150925
 DOF| Number of intramolecular constraints                                     0
 DOF| Number of intermolecular constraints                                     0
 DOF| Invariants (translations + rotations)                                    3
 DOF| Degrees of freedom                                                  452772

 DOF| Restraints information
 DOF| Number of intramolecular restraints                                      0
 DOF| Number of intermolecular restraints                                      0

 MD_VEL| Velocities initialization
 MD_VEL| Initial temperature [K]                                      300.000000
 MD_VEL| COM velocity            -0.0000000000     0.0000000000     0.0000000000

  Translating the system in order to center the QM fragment in the QM box.

 Number of electrons:                                                        654
 Number of occupied orbitals:                                                327
 Number of molecular orbitals:                                               327

 Number of orbital functions:                                               2193
 Number of independent orbital functions:                                   2193

 Extrapolation method: initial_guess


 SCF WAVEFUNCTION OPTIMIZATION

  ----------------------------------- OT ---------------------------------------
  Minimizer      : DIIS                : direct inversion
                                         in the iterative subspace
                                         using   7 DIIS vectors
                                         safer DIIS on
  Preconditioner : FULL_ALL            : diagonalization, state selective
  Precond_solver : DEFAULT
  stepsize       :    0.15000000                  energy_gap     :    0.08000000
  eps_taylor     :   0.10000E-15                  max_taylor     :             4
  ----------------------------------- OT ---------------------------------------

  Step     Update method      Time    Convergence         Total energy    Change
  ------------------------------------------------------------------------------
  Decoupling Energy:                                               0.0674872996
  Recoupling Energy:                                              -0.0068222234
     1 OT DIIS     0.15E+00    7.7     0.00001627     -1098.7913677411 -1.10E+03
  Decoupling Energy:                                               0.0674861058
  Recoupling Energy:                                              -0.0068221797
     2 OT DIIS     0.15E+00    0.7     0.00000900     -1098.7913888938 -2.12E-05
  Decoupling Energy:                                               0.0674950603
  Recoupling Energy:                                              -0.0068223087
     3 OT DIIS     0.15E+00    0.7     0.00001460     -1098.7913964549 -7.56E-06
  Decoupling Energy:                                               0.0674896965
  Recoupling Energy:                                              -0.0068222498
     4 OT DIIS     0.15E+00    0.7     0.00000626     -1098.7913998880 -3.43E-06
  Decoupling Energy:                                               0.0674872278
  Recoupling Energy:                                              -0.0068222035
     5 OT DIIS     0.15E+00    0.7     0.00000578     -1098.7914020837 -2.20E-06
  Decoupling Energy:                                               0.0674888303
  Recoupling Energy:                                              -0.0068221999
     6 OT DIIS     0.15E+00    0.7     0.00000580     -1098.7914084634 -6.38E-06
  Decoupling Energy:                                               0.0674891663
  Recoupling Energy:                                              -0.0068222222
     7 OT DIIS     0.15E+00    0.7     0.00000561     -1098.7914167881 -8.32E-06
  Decoupling Energy:                                               0.0674892941
  Recoupling Energy:                                              -0.0068222412
     8 OT DIIS     0.15E+00    0.7     0.00000524     -1098.7914221585 -5.37E-06
  Decoupling Energy:                                               0.0674881907
  Recoupling Energy:                                              -0.0068221895
     9 OT DIIS     0.15E+00    0.7     0.00000516     -1098.7914280315 -5.87E-06
  Decoupling Energy:                                               0.0674891068
  Recoupling Energy:                                              -0.0068222186
    10 OT DIIS     0.15E+00    0.7     0.00000503     -1098.7914326439 -4.61E-06
  Decoupling Energy:                                               0.0674910255
  Recoupling Energy:                                              -0.0068222409
    11 OT DIIS     0.15E+00    0.7     0.00000505     -1098.7914451574 -1.25E-05
  Decoupling Energy:                                               0.0674893445
  Recoupling Energy:                                              -0.0068222092
    12 OT DIIS     0.15E+00    0.7     0.00000544     -1098.7914511015 -5.94E-06
  Decoupling Energy:                                               0.0674886192
  Recoupling Energy:                                              -0.0068221746
    13 OT DIIS     0.15E+00    0.7     0.00000506     -1098.7914589353 -7.83E-06
  Decoupling Energy:                                               0.0674897272
  Recoupling Energy:                                              -0.0068221819
    14 OT DIIS     0.15E+00    0.7     0.00000482     -1098.7914634348 -4.50E-06
  Decoupling Energy:                                               0.0674896707
  Recoupling Energy:                                              -0.0068222125
    15 OT DIIS     0.15E+00    0.7     0.00000471     -1098.7914698145 -6.38E-06
  Decoupling Energy:                                               0.0674902115
  Recoupling Energy:                                              -0.0068221925
    16 OT DIIS     0.15E+00    0.7     0.00000482     -1098.7914781062 -8.29E-06
  Decoupling Energy:                                               0.0674901472
  Recoupling Energy:                                              -0.0068221797
    17 OT DIIS     0.15E+00    0.7     0.00000498     -1098.7914886289 -1.05E-05
  Decoupling Energy:                                               0.0674880435
  Recoupling Energy:                                              -0.0068221048
    18 OT DIIS     0.15E+00    0.7     0.00000526     -1098.7915022664 -1.36E-05
  Decoupling Energy:                                               0.0674897586
  Recoupling Energy:                                              -0.0068221785
    19 OT DIIS     0.15E+00    0.7     0.00000471     -1098.7915055207 -3.25E-06
  Decoupling Energy:                                               0.0674872475
  Recoupling Energy:                                              -0.0068220953
    20 OT DIIS     0.15E+00    0.7     0.00000508     -1098.7915154560 -9.94E-06
  Decoupling Energy:                                               0.0674906167
  Recoupling Energy:                                              -0.0068222473
    21 OT DIIS     0.15E+00    0.7     0.00000457     -1098.7915235632 -8.11E-06
  Decoupling Energy:                                               0.0674882094
  Recoupling Energy:                                              -0.0068221454
    22 OT DIIS     0.15E+00    0.7     0.00000473     -1098.7915323917 -8.83E-06
  Decoupling Energy:                                               0.0674847826
  Recoupling Energy:                                              -0.0068220505
    23 OT DIIS     0.15E+00    0.7     0.00000542     -1098.7915548569 -2.25E-05
  Decoupling Energy:                                               0.0674699959
  Recoupling Energy:                                              -0.0068215480
    24 OT DIIS     0.15E+00    0.7     0.00001418     -1098.7915841560 -2.93E-05
  Decoupling Energy:                                               0.0674739933
  Recoupling Energy:                                              -0.0068217824
    25 OT SD       0.15E+00    0.7     0.00000724     -1098.7915868327 -2.68E-06
  Decoupling Energy:                                               0.0674836505
  Recoupling Energy:                                              -0.0068222788
    26 OT SD       0.15E+00    0.7     0.00001712     -1098.7915858285  1.00E-06
  Decoupling Energy:                                               0.0674808642
  Recoupling Energy:                                              -0.0068216362
    27 OT DIIS     0.15E+00    0.7     0.00005727     -1098.7915520468  3.38E-05
  Decoupling Energy:                                               0.0674947418
  Recoupling Energy:                                              -0.0068224728
    28 OT DIIS     0.15E+00    0.7     0.00000821     -1098.7915724252 -2.04E-05
  Decoupling Energy:                                               0.0674768507
  Recoupling Energy:                                              -0.0068218846
    29 OT DIIS     0.15E+00    0.7     0.00000539     -1098.7915985535 -2.61E-05
  Decoupling Energy:                                               0.0674835214
  Recoupling Energy:                                              -0.0068221007
    30 OT SD       0.15E+00    0.7     0.00000463     -1098.7916040725 -5.52E-06
  Decoupling Energy:                                               0.0674810457
  Recoupling Energy:                                              -0.0068220181
    31 OT DIIS     0.15E+00    0.7     0.00000894     -1098.7916049463 -8.74E-07
  Decoupling Energy:                                               0.0674855074
  Recoupling Energy:                                              -0.0068221340
    32 OT SD       0.15E+00    0.7     0.00000392     -1098.7916135978 -8.65E-06
  Decoupling Energy:                                               0.0674890623
  Recoupling Energy:                                              -0.0068222227
    33 OT DIIS     0.15E+00    0.7     0.00000540     -1098.7916148950 -1.30E-06
  Decoupling Energy:                                               0.0674876840
  Recoupling Energy:                                              -0.0068221546
    34 OT DIIS     0.15E+00    0.7     0.00000373     -1098.7916208254 -5.93E-06
  Decoupling Energy:                                               0.0674877213
  Recoupling Energy:                                              -0.0068221785
    35 OT DIIS     0.15E+00    0.7     0.00000370     -1098.7916231370 -2.31E-06
  Decoupling Energy:                                               0.0674875505
  Recoupling Energy:                                              -0.0068221509
    36 OT DIIS     0.15E+00    0.7     0.00000400     -1098.7916341155 -1.10E-05
  Decoupling Energy:                                               0.0674875254
  Recoupling Energy:                                              -0.0068221469
    37 OT DIIS     0.15E+00    0.7     0.00000377     -1098.7916392175 -5.10E-06
  Decoupling Energy:                                               0.0674846560
  Recoupling Energy:                                              -0.0068220695
    38 OT SD       0.15E+00    0.7     0.00000380     -1098.7916448029 -5.59E-06
  Decoupling Energy:                                               0.0674855381
  Recoupling Energy:                                              -0.0068221506
    39 OT DIIS     0.15E+00    0.7     0.00000675     -1098.7916456623 -8.59E-07
  Decoupling Energy:                                               0.0674807381
  Recoupling Energy:                                              -0.0068219768
    40 OT SD       0.15E+00    0.7     0.00000454     -1098.7916593298 -1.37E-05
  Decoupling Energy:                                               0.0674769458
  Recoupling Energy:                                              -0.0068219670
    41 OT SD       0.15E+00    0.7     0.00000937     -1098.7916596928 -3.63E-07
  Decoupling Energy:                                               0.0674895012
  Recoupling Energy:                                              -0.0068221138
    42 OT DIIS     0.15E+00    0.7     0.00002997     -1098.7916510973  8.60E-06
  Decoupling Energy:                                               0.0674782357
  Recoupling Energy:                                              -0.0068219392
    43 OT DIIS     0.15E+00    0.7     0.00000365     -1098.7916657044 -1.46E-05
  Decoupling Energy:                                               0.0674784760
  Recoupling Energy:                                              -0.0068219407
    44 OT DIIS     0.15E+00    0.7     0.00000337     -1098.7916710195 -5.32E-06
  Decoupling Energy:                                               0.0674762165
  Recoupling Energy:                                              -0.0068219283
    45 OT DIIS     0.15E+00    0.7     0.00000362     -1098.7916812888 -1.03E-05
  Decoupling Energy:                                               0.0674769520
  Recoupling Energy:                                              -0.0068219474
    46 OT DIIS     0.15E+00    0.7     0.00000327     -1098.7916849593 -3.67E-06
  Decoupling Energy:                                               0.0674741791
  Recoupling Energy:                                              -0.0068218721
    47 OT DIIS     0.15E+00    0.7     0.00000448     -1098.7916952857 -1.03E-05
  Decoupling Energy:                                               0.0674755255
  Recoupling Energy:                                              -0.0068219163
    48 OT DIIS     0.15E+00    0.7     0.00000311     -1098.7916980959 -2.81E-06
  Decoupling Energy:                                               0.0674742304
  Recoupling Energy:                                              -0.0068219045
    49 OT DIIS     0.15E+00    0.7     0.00000553     -1098.7917083173 -1.02E-05
  Decoupling Energy:                                               0.0674775578
  Recoupling Energy:                                              -0.0068219922
    50 OT DIIS     0.15E+00    0.7     0.00000379     -1098.7917138546 -5.54E-06
  Decoupling Energy:                                               0.0674794172
  Recoupling Energy:                                              -0.0068220209
    51 OT DIIS     0.15E+00    0.7     0.00000292     -1098.7917207755 -6.92E-06
  Decoupling Energy:                                               0.0674785962
  Recoupling Energy:                                              -0.0068219592
    52 OT DIIS     0.15E+00    0.7     0.00000418     -1098.7917246135 -3.84E-06
  Decoupling Energy:                                               0.0674806857
  Recoupling Energy:                                              -0.0068220148
    53 OT DIIS     0.15E+00    0.7     0.00000296     -1098.7917268985 -2.29E-06
  Decoupling Energy:                                               0.0674828510
  Recoupling Energy:                                              -0.0068220703
    54 OT DIIS     0.15E+00    0.7     0.00000536     -1098.7917366482 -9.75E-06
  Decoupling Energy:                                               0.0674845457
  Recoupling Energy:                                              -0.0068221027
    55 OT DIIS     0.15E+00    0.7     0.00000312     -1098.7917368525 -2.04E-07
  Decoupling Energy:                                               0.0674881575
  Recoupling Energy:                                              -0.0068221628
    56 OT SD       0.15E+00    0.7     0.00000634     -1098.7917470924 -1.02E-05
  Decoupling Energy:                                               0.0674739783
  Recoupling Energy:                                              -0.0068218353
    57 OT SD       0.15E+00    0.7     0.00001492     -1098.7917455912  1.50E-06
  Decoupling Energy:                                               0.0675039581
  Recoupling Energy:                                              -0.0068225999
    58 OT DIIS     0.15E+00    0.7     0.00004736     -1098.7917175238  2.81E-05
  Decoupling Energy:                                               0.0674835367
  Recoupling Energy:                                              -0.0068220172
    59 OT DIIS     0.15E+00    0.7     0.00000335     -1098.7917459876 -2.85E-05
  Decoupling Energy:                                               0.0674899689
  Recoupling Energy:                                              -0.0068222439
    60 OT DIIS     0.15E+00    0.7     0.00000258     -1098.7917499340 -3.95E-06
  Decoupling Energy:                                               0.0674929382
  Recoupling Energy:                                              -0.0068223217
    61 OT DIIS     0.15E+00    0.8     0.00000395     -1098.7917557392 -5.81E-06
  Decoupling Energy:                                               0.0674936185
  Recoupling Energy:                                              -0.0068223074
    62 OT DIIS     0.15E+00    0.7     0.00000310     -1098.7917584010 -2.66E-06
  Decoupling Energy:                                               0.0674928214
  Recoupling Energy:                                              -0.0068222706
    63 OT SD       0.15E+00    0.7     0.00000252     -1098.7917598039 -1.40E-06
  Decoupling Energy:                                               0.0674896213
  Recoupling Energy:                                              -0.0068222093
    64 OT DIIS     0.15E+00    0.7     0.00000349     -1098.7917602535 -4.50E-07
  Decoupling Energy:                                               0.0674942060
  Recoupling Energy:                                              -0.0068223189
    65 OT DIIS     0.15E+00    0.7     0.00000280     -1098.7917666795 -6.43E-06
  Decoupling Energy:                                               0.0674936667
  Recoupling Energy:                                              -0.0068222776
    66 OT DIIS     0.15E+00    0.7     0.00000303     -1098.7917685154 -1.84E-06
  Decoupling Energy:                                               0.0674963081
  Recoupling Energy:                                              -0.0068223423
    67 OT DIIS     0.15E+00    0.7     0.00000323     -1098.7917735272 -5.01E-06
  Decoupling Energy:                                               0.0674995514
  Recoupling Energy:                                              -0.0068224255
    68 OT SD       0.15E+00    0.8     0.00000371     -1098.7917786255 -5.10E-06
  Decoupling Energy:                                               0.0674871455
  Recoupling Energy:                                              -0.0068220790
    69 OT SD       0.15E+00    0.7     0.00000772     -1098.7917784660  1.60E-07
  Decoupling Energy:                                               0.0675067722
  Recoupling Energy:                                              -0.0068226901
    70 OT DIIS     0.15E+00    0.7     0.00002225     -1098.7917732383  5.23E-06
  Decoupling Energy:                                               0.0674927589
  Recoupling Energy:                                              -0.0068222602
    71 OT DIIS     0.15E+00    0.7     0.00000226     -1098.7917801505 -6.91E-06
  Decoupling Energy:                                               0.0674966066
  Recoupling Energy:                                              -0.0068223555
    72 OT DIIS     0.15E+00    0.8     0.00000256     -1098.7917837933 -3.64E-06
  Decoupling Energy:                                               0.0674997870
  Recoupling Energy:                                              -0.0068224447
    73 OT DIIS     0.15E+00    0.7     0.00000330     -1098.7917896449 -5.85E-06
  Decoupling Energy:                                               0.0675095759
  Recoupling Energy:                                              -0.0068227147
    74 OT DIIS     0.15E+00    0.7     0.00000541     -1098.7917973563 -7.71E-06
  Decoupling Energy:                                               0.0675084217
  Recoupling Energy:                                              -0.0068226650
    75 OT SD       0.15E+00    0.8     0.00000467     -1098.7917993109 -1.95E-06
  Decoupling Energy:                                               0.0674911618
  Recoupling Energy:                                              -0.0068221561
    76 OT SD       0.15E+00    0.7     0.00000995     -1098.7917986298  6.81E-07
  Decoupling Energy:                                               0.0675159001
  Recoupling Energy:                                              -0.0068229846
    77 OT DIIS     0.15E+00    0.7     0.00002850     -1098.7917895917  9.04E-06
  Decoupling Energy:                                               0.0674877800
  Recoupling Energy:                                              -0.0068221437
    78 OT DIIS     0.15E+00    0.7     0.00000330     -1098.7917970926 -7.50E-06
  Decoupling Energy:                                               0.0675000141
  Recoupling Energy:                                              -0.0068224304
    79 OT DIIS     0.15E+00    0.8     0.00000254     -1098.7918009459 -3.85E-06
  Decoupling Energy:                                               0.0674983475
  Recoupling Energy:                                              -0.0068223889
    80 OT DIIS     0.15E+00    0.7     0.00000174     -1098.7918019736 -1.03E-06
  Decoupling Energy:                                               0.0674932311
  Recoupling Energy:                                              -0.0068222609
    81 OT DIIS     0.15E+00    0.7     0.00000154     -1098.7918022736 -3.00E-07
  Decoupling Energy:                                               0.0674931104
  Recoupling Energy:                                              -0.0068222502
    82 OT DIIS     0.15E+00    0.7     0.00000158     -1098.7918030829 -8.09E-07
  Decoupling Energy:                                               0.0674941931
  Recoupling Energy:                                              -0.0068222773
    83 OT DIIS     0.15E+00    0.7     0.00000151     -1098.7918033919 -3.09E-07
  Decoupling Energy:                                               0.0674935288
  Recoupling Energy:                                              -0.0068222462
    84 OT DIIS     0.15E+00    0.8     0.00000146     -1098.7918049097 -1.52E-06
  Decoupling Energy:                                               0.0674921687
  Recoupling Energy:                                              -0.0068222163
    85 OT DIIS     0.15E+00    0.7     0.00000148     -1098.7918052906 -3.81E-07
  Decoupling Energy:                                               0.0674927031
  Recoupling Energy:                                              -0.0068222117
    86 OT DIIS     0.15E+00    0.7     0.00000137     -1098.7918068012 -1.51E-06
  Decoupling Energy:                                               0.0674932283
  Recoupling Energy:                                              -0.0068222212
    87 OT DIIS     0.15E+00    0.8     0.00000137     -1098.7918082006 -1.40E-06
  Decoupling Energy:                                               0.0674932997
  Recoupling Energy:                                              -0.0068222109
    88 OT DIIS     0.15E+00    0.7     0.00000135     -1098.7918094064 -1.21E-06
  Decoupling Energy:                                               0.0674940499
  Recoupling Energy:                                              -0.0068222214
    89 OT DIIS     0.15E+00    0.8     0.00000132     -1098.7918106717 -1.27E-06
  Decoupling Energy:                                               0.0674950599
  Recoupling Energy:                                              -0.0068222481
    90 OT DIIS     0.15E+00    0.8     0.00000135     -1098.7918118263 -1.15E-06
  Decoupling Energy:                                               0.0674958216
  Recoupling Energy:                                              -0.0068222625
    91 OT DIIS     0.15E+00    0.8     0.00000132     -1098.7918127574 -9.31E-07
  Decoupling Energy:                                               0.0674958881
  Recoupling Energy:                                              -0.0068222612
    92 OT DIIS     0.15E+00    0.8     0.00000129     -1098.7918136728 -9.15E-07
  Decoupling Energy:                                               0.0674962664
  Recoupling Energy:                                              -0.0068222797
    93 OT DIIS     0.15E+00    0.8     0.00000142     -1098.7918146204 -9.48E-07
  Decoupling Energy:                                               0.0674997115
  Recoupling Energy:                                              -0.0068223473
    94 OT DIIS     0.15E+00    0.8     0.00000146     -1098.7918163444 -1.72E-06
  Decoupling Energy:                                               0.0675001535
  Recoupling Energy:                                              -0.0068223566
    95 OT DIIS     0.15E+00    0.8     0.00000139     -1098.7918170160 -6.72E-07
  Decoupling Energy:                                               0.0674986139
  Recoupling Energy:                                              -0.0068223210
    96 OT DIIS     0.15E+00    0.8     0.00000126     -1098.7918177253 -7.09E-07
  Decoupling Energy:                                               0.0675042006
  Recoupling Energy:                                              -0.0068224455
    97 OT DIIS     0.15E+00    0.8     0.00000172     -1098.7918202494 -2.52E-06
  Decoupling Energy:                                               0.0675024999
  Recoupling Energy:                                              -0.0068223933
    98 OT DIIS     0.15E+00    0.8     0.00000131     -1098.7918219816 -1.73E-06
  Decoupling Energy:                                               0.0675113633
  Recoupling Energy:                                              -0.0068225885
    99 OT DIIS     0.15E+00    0.8     0.00000250     -1098.7918252635 -3.28E-06
  Decoupling Energy:                                               0.0675135564
  Recoupling Energy:                                              -0.0068226239
   100 OT DIIS     0.15E+00    0.8     0.00000283     -1098.7918264429 -1.18E-06
  Decoupling Energy:                                               0.0675143268
  Recoupling Energy:                                              -0.0068226418
   101 OT SD       0.15E+00    0.8     0.00000280     -1098.7918269352 -4.92E-07
  Decoupling Energy:                                               0.0675020460
  Recoupling Energy:                                              -0.0068222632
   102 OT SD       0.15E+00    0.8     0.00000578     -1098.7918267203  2.15E-07
  Decoupling Energy:                                               0.0675171008
  Recoupling Energy:                                              -0.0068228889
   103 OT DIIS     0.15E+00    0.8     0.00001534     -1098.7918240343  2.69E-06
  Decoupling Energy:                                               0.0675040401
  Recoupling Energy:                                              -0.0068224040
   104 OT SD       0.15E+00    0.8     0.00000118     -1098.7918269139 -2.88E-06
  Decoupling Energy:                                               0.0675030598
  Recoupling Energy:                                              -0.0068223826
   105 OT DIIS     0.15E+00    0.7     0.00000182     -1098.7918270005 -8.66E-08
  Decoupling Energy:                                               0.0675030082
  Recoupling Energy:                                              -0.0068223819
   106 OT SD       0.15E+00    0.7     0.00000107     -1098.7918279487 -9.48E-07
  Decoupling Energy:                                               0.0675015956
  Recoupling Energy:                                              -0.0068223425
   107 OT DIIS     0.15E+00    0.7     0.00000150     -1098.7918280384 -8.97E-08
  Decoupling Energy:                                               0.0675000512
  Recoupling Energy:                                              -0.0068223113
   108 OT DIIS     0.15E+00    0.7     0.00000102     -1098.7918291194 -1.08E-06
  Decoupling Energy:                                               0.0675016205
  Recoupling Energy:                                              -0.0068223432
   109 OT SD       0.15E+00    0.8     0.00000113     -1098.7918306956 -1.58E-06
  Decoupling Energy:                                               0.0674986045
  Recoupling Energy:                                              -0.0068222508
   110 OT DIIS     0.15E+00    0.7     0.00000205     -1098.7918307446 -4.90E-08
  Decoupling Energy:                                               0.0675007660
  Recoupling Energy:                                              -0.0068223076
   111 OT DIIS     0.15E+00    0.7     0.00000101     -1098.7918321372 -1.39E-06
  Decoupling Energy:                                               0.0675033231
  Recoupling Energy:                                              -0.0068223526
   112 OT SD       0.15E+00    0.7     0.00000139     -1098.7918337376 -1.60E-06
  Decoupling Energy:                                               0.0674989695
  Recoupling Energy:                                              -0.0068222240
   113 OT SD       0.15E+00    0.8     0.00000282     -1098.7918337352  2.38E-09
  Decoupling Energy:                                               0.0675051813
  Recoupling Energy:                                              -0.0068224671
   114 OT DIIS     0.15E+00    0.8     0.00000804     -1098.7918330785  6.57E-07
  Decoupling Energy:                                               0.0675023222
  Recoupling Energy:                                              -0.0068223198
   115 OT DIIS     0.15E+00    0.8     0.00000091     -1098.7918350658 -1.99E-06

  *** SCF run converged in   115 steps ***


  Electronic density on regular grids:       -654.0000008477       -0.0000008477
  Core density on regular grids:              654.9999999993       -0.0000000007
  Total charge density on r-space grids:        0.9999991516
  Total charge density g-space grids:           0.9999991516

  Overlap energy of the core charge distribution:               0.00004213532864
  Self energy of the core charge distribution:              -2459.11679630764229
  Core Hamiltonian energy:                                    751.03827149578160
  Hartree energy:                                            1002.26599947640761
  Exchange-correlation energy:                               -294.03608129244401
  QM/MM Electrostatic energy:                                 -98.94327057323142

  Total energy:                                             -1098.79183506579966
  Decoupling Energy:                                               0.0675041685
  Recoupling Energy:                                              -0.0068223474

 ENERGY| Total FORCE_EVAL ( QMMM ) energy [a.u.]:          -1469.875704556856135

 MD_INI| MD initialization
 MD_INI| Potential energy [hartree]                          -0.146987570456E+04
 MD_INI| Total kinetic energy [hartree]                       0.215076797492E+03
 MD_INI| QM kinetic energy [hartree]                          0.369606607592E+00
 MD_INI| Total temperature [K]                                        300.000000
 MD_INI| QM temperature [K]                                           307.542546
 MD_INI| Cell volume [bohr^3]                                 9.853827160554E+06
 MD_INI| Cell volume [ang^3]                                  1.460186515536E+06
 MD_INI| Cell lengths [bohr]      2.39870119E+02  2.39870119E+02  1.71258698E+02
 MD_INI| Cell lengths [ang]       1.26933800E+02  1.26933800E+02  9.06262000E+01
 MD_INI| Cell angles [deg]        9.00000000E+01  9.00000000E+01  9.00000000E+01

  Translating the system in order to center the QM fragment in the QM box.

 Number of electrons:                                                        654
 Number of occupied orbitals:                                                327
 Number of molecular orbitals:                                               327

 Number of orbital functions:                                               2193
 Number of independent orbital functions:                                   2193

 Extrapolation method: ASPC


 SCF WAVEFUNCTION OPTIMIZATION

  ----------------------------------- OT ---------------------------------------
  Minimizer      : DIIS                : direct inversion
                                         in the iterative subspace
                                         using   7 DIIS vectors
                                         safer DIIS on
  Preconditioner : FULL_ALL            : diagonalization, state selective
  Precond_solver : DEFAULT
  stepsize       :    0.15000000                  energy_gap     :    0.08000000
  eps_taylor     :   0.10000E-15                  max_taylor     :             4
  ----------------------------------- OT ---------------------------------------

  Step     Update method      Time    Convergence         Total energy    Change
  ------------------------------------------------------------------------------
  Decoupling Energy:                                               0.0676684954
  Recoupling Energy:                                              -0.0068237643
     1 OT DIIS     0.15E+00    1.3     0.00038786     -1098.3649186362 -1.10E+03
  Decoupling Energy:                                               0.0674457127
  Recoupling Energy:                                              -0.0068207504
     2 OT DIIS     0.15E+00    0.7     0.00028126     -1098.3740107707 -9.09E-03
  Decoupling Energy:                                               0.0676533927
  Recoupling Energy:                                              -0.0068214036
     3 OT DIIS     0.15E+00    0.7     0.00045485     -1098.3736133671  3.97E-04
  Decoupling Energy:                                               0.0674799366
  Recoupling Energy:                                              -0.0068213993
     4 OT DIIS     0.15E+00    0.7     0.00017690     -1098.3760482664 -2.43E-03
  Decoupling Energy:                                               0.0674311354
  Recoupling Energy:                                              -0.0068207547
     5 OT DIIS     0.15E+00    0.7     0.00005931     -1098.3765466680 -4.98E-04
  Decoupling Energy:                                               0.0674480001
  Recoupling Energy:                                              -0.0068203566
     6 OT DIIS     0.15E+00    0.7     0.00004396     -1098.3765893850 -4.27E-05
  Decoupling Energy:                                               0.0674579238
  Recoupling Energy:                                              -0.0068208243
     7 OT DIIS     0.15E+00    0.7     0.00001585     -1098.3766114401 -2.21E-05
  Decoupling Energy:                                               0.0674443864
  Recoupling Energy:                                              -0.0068207256
     8 OT DIIS     0.15E+00    0.7     0.00000827     -1098.3766175454 -6.11E-06
  Decoupling Energy:                                               0.0674430949
  Recoupling Energy:                                              -0.0068205889
     9 OT DIIS     0.15E+00    0.7     0.00000614     -1098.3766198709 -2.33E-06
  Decoupling Energy:                                               0.0674463485
  Recoupling Energy:                                              -0.0068208240
    10 OT DIIS     0.15E+00    0.7     0.00000529     -1098.3766226332 -2.76E-06
  Decoupling Energy:                                               0.0674354748
  Recoupling Energy:                                              -0.0068206237
    11 OT DIIS     0.15E+00    0.7     0.00000391     -1098.3766252919 -2.66E-06
  Decoupling Energy:                                               0.0674363476
  Recoupling Energy:                                              -0.0068207092
    12 OT DIIS     0.15E+00    0.7     0.00000309     -1098.3766275558 -2.26E-06
  Decoupling Energy:                                               0.0674337766
  Recoupling Energy:                                              -0.0068207255
    13 OT DIIS     0.15E+00    0.7     0.00000291     -1098.3766290360 -1.48E-06
  Decoupling Energy:                                               0.0674334111
  Recoupling Energy:                                              -0.0068207027
    14 OT DIIS     0.15E+00    0.7     0.00000290     -1098.3766298052 -7.69E-07
  Decoupling Energy:                                               0.0674327914
  Recoupling Energy:                                              -0.0068207266
    15 OT DIIS     0.15E+00    0.7     0.00000264     -1098.3766306121 -8.07E-07
  Decoupling Energy:                                               0.0674319919
  Recoupling Energy:                                              -0.0068207300
    16 OT DIIS     0.15E+00    0.7     0.00000242     -1098.3766312685 -6.56E-07
  Decoupling Energy:                                               0.0674326741
  Recoupling Energy:                                              -0.0068207336
    17 OT DIIS     0.15E+00    0.7     0.00000213     -1098.3766318203 -5.52E-07
  Decoupling Energy:                                               0.0674333964
  Recoupling Energy:                                              -0.0068207737
    18 OT DIIS     0.15E+00    0.7     0.00000187     -1098.3766326540 -8.34E-07
  Decoupling Energy:                                               0.0674305908
  Recoupling Energy:                                              -0.0068207157
    19 OT DIIS     0.15E+00    0.7     0.00000170     -1098.3766331679 -5.14E-07
  Decoupling Energy:                                               0.0674312252
  Recoupling Energy:                                              -0.0068207489
    20 OT DIIS     0.15E+00    0.7     0.00000150     -1098.3766337810 -6.13E-07
  Decoupling Energy:                                               0.0674308151
  Recoupling Energy:                                              -0.0068207379
    21 OT DIIS     0.15E+00    0.7     0.00000140     -1098.3766342692 -4.88E-07
  Decoupling Energy:                                               0.0674299946
  Recoupling Energy:                                              -0.0068207237
    22 OT DIIS     0.15E+00    0.7     0.00000141     -1098.3766346227 -3.54E-07
  Decoupling Energy:                                               0.0674290096
  Recoupling Energy:                                              -0.0068207129
    23 OT DIIS     0.15E+00    0.7     0.00000139     -1098.3766349774 -3.55E-07
  Decoupling Energy:                                               0.0674285743
  Recoupling Energy:                                              -0.0068207030
    24 OT DIIS     0.15E+00    0.7     0.00000135     -1098.3766352419 -2.65E-07
  Decoupling Energy:                                               0.0674284070
  Recoupling Energy:                                              -0.0068206934
    25 OT DIIS     0.15E+00    0.7     0.00000126     -1098.3766355440 -3.02E-07
  Decoupling Energy:                                               0.0674278976
  Recoupling Energy:                                              -0.0068206888
    26 OT DIIS     0.15E+00    0.7     0.00000115     -1098.3766359069 -3.63E-07
  Decoupling Energy:                                               0.0674264035
  Recoupling Energy:                                              -0.0068206538
    27 OT DIIS     0.15E+00    0.7     0.00000110     -1098.3766361269 -2.20E-07
  Decoupling Energy:                                               0.0674262841
  Recoupling Energy:                                              -0.0068206577
    28 OT DIIS     0.15E+00    0.7     0.00000104     -1098.3766363813 -2.54E-07
  Decoupling Energy:                                               0.0674260744
  Recoupling Energy:                                              -0.0068206467
    29 OT DIIS     0.15E+00    0.7     0.00000101     -1098.3766366326 -2.51E-07
  Decoupling Energy:                                               0.0674256132
  Recoupling Energy:                                              -0.0068206358
    30 OT DIIS     0.15E+00    0.7     0.00000101     -1098.3766368710 -2.38E-07
  Decoupling Energy:                                               0.0674251639
  Recoupling Energy:                                              -0.0068206300
    31 OT DIIS     0.15E+00    0.7     0.00000101     -1098.3766371126 -2.42E-07
  Decoupling Energy:                                               0.0674251524
  Recoupling Energy:                                              -0.0068206264
    32 OT DIIS     0.15E+00    0.7     0.00000099     -1098.3766372883 -1.76E-07

  *** SCF run converged in    32 steps ***


  Electronic density on regular grids:       -654.0000005663       -0.0000005663
  Core density on regular grids:              654.9999999988       -0.0000000012
  Total charge density on r-space grids:        0.9999994325
  Total charge density g-space grids:           0.9999994325

  Overlap energy of the core charge distribution:               0.00004332475490
  Self energy of the core charge distribution:              -2459.11679630764229
  Core Hamiltonian energy:                                    750.78618607621036
  Hartree energy:                                            1002.45030873288488
  Exchange-correlation energy:                               -293.96934578229656
  QM/MM Electrostatic energy:                                 -98.52703333221299

  Total energy:                                             -1098.37663728830148
  Decoupling Energy:                                               0.0674253560
  Recoupling Energy:                                              -0.0068206266

 ENERGY| Total FORCE_EVAL ( QMMM ) energy [a.u.]:          -1447.997668665195306

 MD| ***************************************************************************
 MD| Step number                                                               1
 MD| Time [fs]                                                          1.000000
 MD| Conserved quantity [hartree]                            -0.124929046417E+04
 MD| ---------------------------------------------------------------------------
 MD|                                          Instantaneous             Averages
 MD| CPU time per MD step [s]                    194.369658           194.369658
 MD| Energy drift per atom [K]           0.115251059472E+02   0.000000000000E+00
 MD| Potential energy [hartree]         -0.144799766867E+04  -0.144799766867E+04
 MD| Total kinetic energy [hartree]      0.198707204493E+03   0.198707204493E+03
 MD| QM kinetic energy [hartree]         0.373152786146E+00   0.373152786146E+00
 MD| Total temperature [K]                       277.166863           277.166863
 MD| QM temperature [K]                          310.493253           310.493253
 MD| ***************************************************************************

 -------------------------------------------------------------------------------
 -                                                                             -
 -                                DBCSR STATISTICS                             -
 -                                                                             -
 -------------------------------------------------------------------------------
 COUNTER                                    TOTAL       BLAS       SMM       ACC
 flops     7 x     7 x     7               714126       0.0%      0.0%    100.0%
 flops    32 x     7 x     7             32645760       0.0%      0.0%    100.0%
 flops     7 x    32 x     7             32645760       0.0%      0.0%    100.0%
 flops     7 x     7 x    32             32645760       0.0%      0.0%    100.0%
 flops     7 x     7 x     5             39606700       0.0%      0.0%    100.0%
 flops     5 x     7 x     7             49474810       0.0%      0.0%    100.0%
 flops     7 x     7 x    13             87192560       0.0%      0.0%    100.0%
 flops    13 x     7 x     7            108916808       0.0%      0.0%    100.0%
 flops     5 x     5 x     7            499591050       0.0%      0.0%    100.0%
 flops    13 x     5 x     7           1090485760       0.0%      0.0%    100.0%
 flops     5 x    13 x     7           1091035400       0.0%      0.0%    100.0%
 flops    32 x    32 x     7           1492377600       0.0%      0.0%    100.0%
 flops    32 x     7 x    32           1492377600       0.0%      0.0%    100.0%
 flops     7 x    32 x    32           1492377600       0.0%      0.0%    100.0%
 flops    32 x     7 x     5           1810592000       0.0%      0.0%    100.0%
 flops     7 x    32 x     5           1810592000       0.0%      0.0%    100.0%
 flops     5 x    32 x     7           2255568000       0.0%      0.0%    100.0%
 flops     5 x     7 x    32           2255568000       0.0%      0.0%    100.0%
 flops    13 x    13 x     7           2388323210       0.0%      0.0%    100.0%
 flops     5 x     7 x     5           3980904900       0.0%      0.0%    100.0%
 flops    32 x     7 x    13           3985945600       0.0%      0.0%    100.0%
 flops     7 x    32 x    13           3985945600       0.0%      0.0%    100.0%
 flops    13 x    32 x     7           4965542400       0.0%      0.0%    100.0%
 flops    13 x     7 x    32           4965542400       0.0%      0.0%    100.0%
 flops    13 x     7 x     5           8759317840       0.0%      0.0%    100.0%
 flops     5 x     7 x    13           8759317840       0.0%      0.0%    100.0%
 flops    13 x     7 x    13          19145955920       0.0%      0.0%    100.0%
 flops     5 x     5 x    32          22838448000       0.0%      0.0%    100.0%
 flops    13 x     5 x    32          49850777600       0.0%      0.0%    100.0%
 flops     5 x    13 x    32          49875904000       0.0%      0.0%    100.0%
 flops    32 x    32 x    32          68222976000       0.0%      0.0%    100.0%
 flops    32 x    32 x     5          82769920000       0.0%      0.0%    100.0%
 flops     5 x    32 x    32         103139737600       0.0%      0.0%    100.0%
 flops    13 x    13 x    32         109180489600       0.0%      0.0%    100.0%
 flops     5 x    32 x     5         181984224000       0.0%      0.0%    100.0%
 flops    32 x    32 x    13         182214656000       0.0%      0.0%    100.0%
 flops    13 x    32 x    32         227057991680       0.0%      0.0%    100.0%
 flops    13 x    32 x     5         400425958400       0.0%      0.0%    100.0%
 flops     5 x    32 x    13         400425958400       0.0%      0.0%    100.0%
 flops    13 x    32 x    13         875243699200       0.0%      0.0%    100.0%
 flops inhomo. stacks                           0       0.0%      0.0%      0.0%
 flops total                         2.829842E+12       0.0%      0.0%    100.0%
 flops max/rank                    138.049098E+09       0.0%      0.0%    100.0%
 matmuls inhomo. stacks                         0       0.0%      0.0%      0.0%
 matmuls total                          521019818       0.0%      0.0%    100.0%
 number of processed stacks              15178410       0.0%      0.0%    100.0%
 average stack size                                     0.0      75.5      34.3
 marketing flops                     3.077046E+12
 -------------------------------------------------------------------------------
 # multiplications                           3127
 max memory usage/rank               1.858417E+09
 # max total images/rank                        2
 # max 3D layers                                1
 # MPI messages exchanged                 1300832
 MPI messages size (bytes):
  total size                       255.908004E+09
  min size                           0.000000E+00
  max size                           1.236480E+06
  average size                     196.726406E+03
 MPI breakdown and total messages size (bytes):
             size <=      128                1168                        0
       128 < size <=     8192              133230               1091420160
      8192 < size <=    32768              397272               7737871848
     32768 < size <=   131072              237690              16070642040
    131072 < size <=  4194304              531472             231010428160
   4194304 < size <= 16777216                   0                        0
  16777216 < size                               0                        0
 -------------------------------------------------------------------------------

 *** WARNING in dbcsr_mm.F:294 :: Using a non-square number of MPI ranks ***
 *** might lead to poor performance. Used ranks: 32 Suggested: 36 64     ***

 -------------------------------------------------------------------------------
 -                                                                             -
 -                      DBCSR MESSAGE PASSING PERFORMANCE                      -
 -                                                                             -
 -------------------------------------------------------------------------------
 ROUTINE             CALLS      AVE VOLUME [Bytes]
 MP_Bcast               41                     12.
 MP_Allreduce        11353                      8.
 MP_Alltoall          9584                  18506.
 MP_ISend            97070                  95494.
 MP_IRecv            97070                  92822.
 -------------------------------------------------------------------------------

 -------------------------------------------------------------------------------
 -                                                                             -
 -                                GRID STATISTICS                              -
 -                                                                             -
 -------------------------------------------------------------------------------
 LP    KERNEL             BACKEND                              COUNT     PERCENT
 3     collocate ortho    GPU                               47330301      24.31%
 3     integrate ortho    GPU                               47108559      24.19%
 2     collocate ortho    GPU                               30809775      15.82%
 2     integrate ortho    GPU                               30396231      15.61%
 4     integrate ortho    GPU                               19583650      10.06%
 4     collocate ortho    GPU                               19206166       9.86%
 5     integrate ortho    GPU                                 257802       0.13%
 0     collocate general  REF                                  16192       0.01%
 1     integrate general  REF                                  16192       0.01%
 -------------------------------------------------------------------------------

 MEMORY| Estimated peak process memory [MiB]                                1837

 -------------------------------------------------------------------------------
 -                                                                             -
 -                         MESSAGE PASSING PERFORMANCE                         -
 -                                                                             -
 -------------------------------------------------------------------------------

 ROUTINE             CALLS      AVE VOLUME [Bytes]
 MP_Group                8
 MP_Bcast             9802                9235028.
 MP_Allreduce         4854                   8798.
 MP_Sync               133
 MP_Alltoall          2897               28544476.
 MP_SendRecv           872                  72198.
 MP_ISendRecv        18476                  72576.
 MP_Wait             34286
 MP_comm_split          62
 MP_ISend            13378                 797655.
 MP_IRecv            13376                 797668.
 MP_Recv                80                 561408.
 -------------------------------------------------------------------------------


 -------------------------------------------------------------------------------
 -                                                                             -
 -                           R E F E R E N C E S                               -
 -                                                                             -
 -------------------------------------------------------------------------------
 
 CP2K version 8.2, the CP2K developers group (2021).
 CP2K is freely available from https://www.cp2k.org/ .

 Kuehne,Thomas D.; Iannuzzi,Marcella; Del Ben,Mauro;
 Rybkin,Vladimir V.; Seewald,Patrick; Stein,Frederick; Laino,Teodoro;
 Khaliullin,Rustam Z.; Schuett,Ole; Schiffmann,Florian; Golze,Dorothea;
 Wilhelm,Jan; Chulkov,Sergey; Bani-Hashemian,Mohammad Hossein;
 Weber,Valery; Borstnik,Urban; Taillefumier,Mathieu;
 Jakobovits,Alice Shoshana; Lazzaro,Alfio; Pabst,Hans; Mueller,Tiziano;
 Schade,Robert; Guidon,Manuel; Andermatt,Samuel; Holmberg,Nico;
 Schenter,Gregory K.; Hehn,Anna; Bussy,Augustin; Belleflamme,Fabian;
 Tabacchi,Gloria; Gloess,Andreas; Lass,Michael; Bethune,Iain;
 Mundy,Christopher J.; Plessl,Christian; Watkins,Matt;
 VandeVondele,Joost; Krack,Matthias; Hutter,Juerg. 
 The Journal of Chemical Physics, 152 (19), (2020). 
 CP2K: An electronic structure and molecular dynamics software package -
 Quickstep: Efficient and accurate electronic structure calculations.
 https://doi.org/10.1063/5.0007045

 Schuett, Ole; Messmer, Peter; Hutter, Juerg; VandeVondele, Joost. 
 Electronic Structure Calculations on Graphics Processing Units, John
 Wiley & Sons, Ltd, 173-190 (2016). 
 GPU-Accelerated Sparse Matrix-Matrix Multiplication for
 Linear Scaling Density Functional Theory.
 https://doi.org/10.1002/9781118670712.ch8

 Heinecke, A; Henry, G; Hutchinson, M; Pabst, H. 
 Proceedings of Intl. Supercomputing Conference, 981-991 (2016). 
 LIBXSMM: Accelerating Small Matrix Multiplications
 by Runtime Code Generation.
 https://doi.org/10.1109/SC.2016.83

 Borstnik, U; VandeVondele, J; Weber, V; Hutter, J. 
 PARALLEL COMPUTING, 40 (5-6), 47-58 (2014). 
 Sparse matrix multiplication: The distributed block-compressed sparse
 row library.
 https://doi.org/10.1016/j.parco.2014.03.012

 Hutter, J; Iannuzzi, M; Schiffmann, F; VandeVondele, J. 
 WIREs Comput Mol Sci., 4 (1), 15-25 (2014). 
 CP2K: atomistic simulations of condensed matter systems.
 https://doi.org/10.1002/wcms.1159

 Marek, A; Blum, V; Johanni, R; Havu, V; Lang, B; Auckenthaler, T;
 Heinecke, A; Bungartz, H; Lederer, H. 
 Journal of Physics: Condensed Matter, 26 (21), (2014). 
 The ELPA library: scalable parallel eigenvalue solutions for
 electronic structure
 theory and computational science.
 https://doi.org/10.1088/0953-8984/26/21/213201

 VandeVondele, J; Hutter, J. 
 JOURNAL OF CHEMICAL PHYSICS, 127 (11), 114105 (2007). 
 Gaussian basis sets for accurate calculations on molecular systems in
 gas and condensed phases.
 https://doi.org/10.1063/1.2770708

 Kuhne, TD; Krack, M; Mohamed, FR; Parrinello, M. 
 PHYSICAL REVIEW LETTERS, 98 (6), 066401 (2007). 
 Efficient and accurate Car-Parrinello-like approach to
 Born-Oppenheimer molecular dynamics.
 https://doi.org/10.1103/PhysRevLett.98.066401

 Laino, T; Mohamed, F; Laio, A; Parrinello, M. 
 JOURNAL OF CHEMICAL THEORY AND COMPUTATION, 2 (5), 1370-1378 (2006). 
 An efficient linear-scaling electrostatic coupling for treating
 periodic boundary conditions in QM/MM simulations.
 https://doi.org/10.1021/ct6001169

 Laino, T; Mohamed, F; Laio, A; Parrinello, M. 
 JOURNAL OF CHEMICAL THEORY AND COMPUTATION, 1 (6), 1176-1184 (2005). 
 An efficient real space multigrid QM/MM electrostatic coupling.
 https://doi.org/10.1021/ct050123f

 Krack, M. 
 THEORETICAL CHEMISTRY ACCOUNTS, 114 (1-3), 145-152 (2005). 
 Pseudopotentials for H to Kr optimized for gradient-corrected
 exchange-correlation functionals.
 https://doi.org/10.1007/s00214-005-0655-y

 VandeVondele, J; Krack, M; Mohamed, F; Parrinello, M; Chassaing, T;
 Hutter, J. COMPUTER PHYSICS COMMUNICATIONS, 167 (2), 103-128 (2005). 
 QUICKSTEP: Fast and accurate density functional calculations using a
 mixed Gaussian and plane waves approach.
 https://doi.org/10.1016/j.cpc.2004.12.014

 Frigo, M; Johnson, SG. 
 PROCEEDINGS OF THE IEEE, 93 (2), 216-231 (2005). 
 The design and implementation of FFTW3.
 https://doi.org/10.1109/JPROC.2004.840301

 Kolafa, J. 
 JOURNAL OF COMPUTATIONAL CHEMISTRY, 25 (3), 335-342 (2004). 
 Time-reversible always stable predictor-corrector method for molecular dynamics of polarizable molecules.
 https://doi.org/10.1002/jcc.10385

 VandeVondele, J; Hutter, J. 
 JOURNAL OF CHEMICAL PHYSICS, 118 (10), 4365-4369 (2003). 
 An efficient orbital transformation method for electronic structure
 calculations.
 https://doi.org/10.1063/1.1543154

 Hartwigsen, C; Goedecker, S; Hutter, J. 
 PHYSICAL REVIEW B, 58 (7), 3641-3662 (1998). 
 Relativistic separable dual-space Gaussian pseudopotentials from H to Rn.
 https://doi.org/10.1103/PhysRevB.58.3641

 Lippert, G; Hutter, J; Parrinello, M. 
 MOLECULAR PHYSICS, 92 (3), 477-487 (1997). 
 A hybrid Gaussian and plane wave density functional scheme.
 https://doi.org/10.1080/002689797170220

 Goedecker, S; Teter, M; Hutter, J. 
 PHYSICAL REVIEW B, 54 (3), 1703-1710 (1996). 
 Separable dual-space Gaussian pseudopotentials.
 https://doi.org/10.1103/PhysRevB.54.1703

 ESSMANN, U; PERERA, L; BERKOWITZ, ML; DARDEN, T; LEE, H; PEDERSEN, LG. 
 JOURNAL OF CHEMICAL PHYSICS, 103 (19), 8577-8593 (1995). 
 A SMOOTH PARTICLE MESH EWALD METHOD.
 https://doi.org/10.1063/1.470117

 BLOCHL, PE. 
 JOURNAL OF CHEMICAL PHYSICS, 103 (17), 7422-7428 (1995). 
 ELECTROSTATIC DECOUPLING OF PERIODIC IMAGES OF PLANE-WAVE-EXPANDED
 DENSITIES AND DERIVED ATOMIC POINT CHARGES.
 https://doi.org/10.1063/1.470314

 BECKE, AD. PHYSICAL REVIEW A, 38 (6), 3098-3100 (1988). 
 DENSITY-FUNCTIONAL EXCHANGE-ENERGY APPROXIMATION WITH CORRECT
 ASYMPTOTIC-BEHAVIOR.
 https://doi.org/10.1103/PhysRevA.38.3098

 LEE, CT; YANG, WT; PARR, RG. 
 PHYSICAL REVIEW B, 37 (2), 785-789 (1988). 
 DEVELOPMENT OF THE COLLE-SALVETTI CORRELATION-ENERGY FORMULA INTO A
 FUNCTIONAL OF THE ELECTRON-DENSITY.
 https://doi.org/10.1103/PhysRevB.37.785


 -------------------------------------------------------------------------------
 -                                                                             -
 -                                T I M I N G                                  -
 -                                                                             -
 -------------------------------------------------------------------------------
 SUBROUTINE                       CALLS  ASD         SELF TIME        TOTAL TIME
                                MAXIMUM       AVERAGE  MAXIMUM  AVERAGE  MAXIMUM
 CP2K                                 1  1.0    0.248    0.285  256.570  256.571
 qs_mol_dyn_low                       1  2.0    0.007    0.008  195.550  198.135
 qs_forces                            2  3.5    0.000    0.000  131.277  131.280
 qs_energies                          2  4.5    0.000    0.000  129.482  129.486
 scf_env_do_scf                       2  5.5    0.000    0.000  120.763  120.764
 scf_env_do_scf_inner_loop          147  6.2    0.003    0.008  114.163  114.177
 rebuild_ks_matrix                  149  8.2    0.001    0.001   62.047   62.785
 qs_ks_build_kohn_sham_matrix       149  9.2    0.018    0.020   62.046   62.785
 qs_ks_update_qs_env                149  7.2    0.001    0.001   60.690   61.419
 velocity_verlet                      1  3.0    0.004    0.005   58.030   58.101
 qmmm_env_create                      1  2.0    7.361    7.630   58.072   58.077
 fist_init                            1  3.0    0.019    0.020   45.565   45.571
 dbcsr_multiply_generic            3127 12.4    0.135    0.151   41.997   43.809
 qmmm_el_coupling                     2  3.5    0.000    0.000   40.227   40.301
 qmmm_elec_with_gaussian              2  4.5    0.003    0.003   40.226   40.301
 pw_transfer                       3002 11.9    0.172    0.197   39.387   39.824
 qmmm_elec_with_gaussian_low          2  5.5    0.000    0.000   31.184   39.765
 fft_wrap_pw1pw2                   2545 12.9    0.023    0.027   38.902   39.355
 multiply_cannon                   3127 13.4    0.518    0.590   31.363   38.403
 multiply_cannon_loop              3127 14.4    0.644    0.698   29.871   36.858
 fft_wrap_pw1pw2_150               1643 14.1    0.008    0.009   35.025   35.637
 qs_scf_new_mos                     147  7.2    0.001    0.001   33.561   34.094
 qs_scf_loop_do_ot                  147  8.2    0.001    0.001   33.560   34.094
 ot_scf_mini                        147  9.2    0.003    0.004   30.998   31.338
 qmmm_elec_gaussian_low_G             2  6.5   26.052   31.295   26.052   31.295
 multiply_cannon_multrec          25016 15.4    7.186   18.318   18.669   30.184
 force_field_control                  1  4.0    0.000    0.002   28.135   28.538
 qs_vxc_create                      149 10.2    0.003    0.004   27.219   27.254
 xc_vxc_pw_create                   149 11.2    0.777    0.828   27.216   27.252
 rdparm_amber_8                       2  6.5   21.083   22.125   25.149   25.221
 ot_mini                            147 10.2    0.001    0.001   21.420   22.100
 dbcsr_mm_accdrv_process          70688 15.9   10.756   21.462   11.250   21.800
 pw_cuda_c1dr3d_3d_ps              1349 15.5    0.022    0.023   19.894   20.251
 pw_cuda_r3dc1d_3d_ps              1196 14.3    0.020    0.022   18.975   19.770
 topology_control                     1  4.0    0.001    0.001   16.935   17.251
 qs_rho_update_rho                  149  7.2    0.001    0.001   16.492   17.147
 calculate_rho_elec                 149  8.2    0.565    0.566   16.491   17.146
 mp_waitall_1                    221036 16.3   10.026   16.948   10.026   16.948
 sum_up_and_integrate               149 10.2    0.224    0.243   16.740   16.858
 integrate_v_rspace                 149 11.2    0.004    0.004   16.516   16.642
 force_field_pack                     1  5.0    0.016    0.017   15.047   15.444
 mp_alltoall_z22v                  2545 16.9   12.421   14.854   12.421   14.854
 multiply_cannon_metrocomm3       25016 15.4    0.048    0.051    7.324   14.637
 qmmm_forces                          2  3.5    0.008    0.011   13.967   13.970
 qmmm_forces_with_gaussian            2  4.5    0.005    0.007   10.057   13.793
 qs_ot_get_derivative               147 11.2    0.001    0.001   13.299   13.636
 connectivity_control                 2  4.0    0.000    0.001   12.899   13.227
 density_rs2pw                      149  9.2    0.005    0.006   12.588   13.178
 read_force_field_amber               1  5.0    0.004    0.005   13.015   13.173
 qmmm_force_with_gaussian_low         2  5.5    0.000    0.000    9.333   13.070
 xc_rho_set_and_dset_create         149 12.2    0.812    0.912   12.565   12.985
 read_connectivity_amber              1  6.0    0.000    0.000   12.138   12.168
 mp_sum_l                          9652 13.0    7.447   11.407    7.447   11.407
 qs_ks_ddapc                        149 10.2    0.002    0.002   10.702   10.790
 mp_sync                            133 14.2    8.596   10.501    8.596   10.501
 rs_pw_transfer                    1204 11.7    0.015    0.017    9.734   10.261
 force_field_pack_ub                  1  6.0    9.604    9.761    9.604    9.761
 x_to_yz                           1349 16.5    2.427    2.741    8.853    9.478
 potential_pw2rs                    149 12.2    0.030    0.034    9.184    9.216
 yz_to_x                           1196 15.3    1.573    1.892    7.568    8.586
 qmmm_elec_gaussian_low_R             2  6.5    0.000    0.000    5.132    8.470
 qmmm_elec_with_gaussian_LG           2  7.5    5.132    8.470    5.132    8.470
 qmmm_forces_gaussian_low_R           2  6.5    0.000    0.000    5.349    8.282
 qmmm_forces_with_gaussian_LG         2  7.5    5.349    8.282    5.349    8.282
 ot_diis_step                       147 11.2    0.006    0.007    7.690    7.694
 cp_ddapc_apply_CD                  149 11.2    0.013    0.248    7.457    7.458
 grid_integrate_task_list           149 12.2    4.506    7.171    4.506    7.171
 mp_sum_dm                          258  4.8    6.180    7.066    6.180    7.066
 pw_cuda_sf                        1349 16.5    6.621    7.064    6.621    7.064
 calculate_dm_sparse                149  9.2    0.001    0.001    6.040    6.964
 pw_cuda_fg                        1196 15.3    6.295    6.888    6.295    6.888
 apply_preconditioner_dbcsr         149 12.2    0.000    0.000    6.124    6.867
 apply_all                          149 13.2    0.011    0.018    6.124    6.866
 init_scf_run                         2  5.5    0.000    0.000    6.752    6.752
 scf_env_initial_rho_setup            2  6.5    0.000    0.000    6.752    6.752
 mp_sum_d                          4980 10.9    4.669    6.661    4.669    6.661
 init_scf_loop                        2  6.5    0.000    0.000    6.584    6.585
 calculate_first_density_matrix       1  7.0    0.000    0.001    5.606    6.460
 fist_calc_energy_force               2  3.5    0.017    0.020    6.289    6.293
 mp_waitany                       13376 13.6    5.033    5.659    5.033    5.659
 prepare_preconditioner               2  7.5    0.000    0.000    5.643    5.651
 pw_cuda_cff                       1196 15.3    5.054    5.401    5.054    5.401
 mp_alltoall_d11v                  1818 14.2    3.892    5.286    3.892    5.286
 write_mo_set_to_restart            147  7.2    0.004    0.036    5.148    5.209
 pw_integral_ab                    1331  8.3    3.424    3.530    4.727    5.188
 write_mo_set_low                     8  8.2    0.159    5.083    5.133    5.187
 cp_fm_write_unformatted              8  9.2    4.963    5.125    4.975    5.187
 -------------------------------------------------------------------------------

 The number of warnings for this run is : 1
 
 -------------------------------------------------------------------------------
  **** **** ******  **  PROGRAM ENDED AT                 2021-07-26 14:02:28.156
 ***** ** ***  *** **   PROGRAM RAN ON                                    r2i4n0
 **    ****   ******    PROGRAM RAN BY                                    hollyj
 ***** **    ** ** **   PROGRAM PROCESS ID                                 65720
  **** **  *******  **  PROGRAM STOPPED IN /lustre/home/w68/hollyj/CP2K/Cirrus/G
                                           PU/cp2kMD/ClC-253-BLYP/1STEPS/8NODES/
                                           36CPN/10THREADS
