 DBCSR| CPU Multiplication driver                                           XSMM
 DBCSR| Multrec recursion limit                                              512
 DBCSR| Multiplication stack size                                          30000
 DBCSR| Maximum elements for images                                    UNLIMITED
 DBCSR| Multiplicative factor virtual images                                   1
 DBCSR| Use multiplication densification                                       F
 DBCSR| Multiplication size stacks                                             3
 DBCSR| Use memory pool for CPU allocation                                     F
 DBCSR| Number of 3D layers                                               SINGLE
 DBCSR| Use MPI memory allocation                                              F
 DBCSR| Use RMA algorithm                                                      F
 DBCSR| Use Communication thread                                               T
 DBCSR| Communication thread load                                             53
 DBCSR| MPI: My node id                                                        0
 DBCSR| MPI: Number of nodes                                                   4
 DBCSR| OMP: Current number of threads                                        10
 DBCSR| OMP: Max number of threads                                            10
 DBCSR| ACC: Number of devices/node                                            4
 DBCSR| ACC: Number of priority stack-buffers                                 40
 DBCSR| ACC: Number of posterior stack-buffers                                80
 DBCSR| ACC: Number of priority streams                                        4
 DBCSR| ACC: Number of posterior streams                                       4
 DBCSR| ACC: Avoid driver after busy                                           F
 DBCSR| ACC: Process inhomogeneous stacks                                      T
 DBCSR| ACC: Min. flop for processing                                          0
 DBCSR| ACC: Min. flop for sorting                                          4000
 DBCSR| ACC: Number of binning bins                                         4096
 DBCSR| ACC: Size of binning bins                                             16
 DBCSR| Split modifier for TAS multiplication algorithm                  1.0E+00


  **** **** ******  **  PROGRAM STARTED AT               2021-07-26 15:58:32.001
 ***** ** ***  *** **   PROGRAM STARTED ON                                r2i6n8
 **    ****   ******    PROGRAM STARTED BY                                hollyj
 ***** **    ** ** **   PROGRAM PROCESS ID                                 36239
  **** **  *******  **  PROGRAM STARTED IN /lustre/home/w68/hollyj/CP2K/Cirrus/G
                                           PU/cp2kMD/MQAE-B3LYP/1STEPS/1NODES/36
                                           CPN/10THREADS

 CP2K| version string:                                          CP2K version 8.2
 CP2K| source code revision number:                                  git:310b7ab
 CP2K| cp2kflags: omp libint fftw3 libxc elpa parallel mpi3 scalapack cosma pw_c
 CP2K|            uda xsmm cuda_profiling dbcsr_acc spglib mkl grid_cuda
 CP2K| is freely available from                            https://www.cp2k.org/
 CP2K| Program compiled at                          Thu Jul 22 18:07:58 BST 2021
 CP2K| Program compiled on                                                r2i5n7
 CP2K| Program compiled for                                           Cirrus-gcc
 CP2K| Data directory path       /lustre/home/w68/hollyj/CP2K/v8.2/cp2k-8.2/data
 CP2K| Input file name                                             mqae-cp2k.inp

 GLOBAL| Force Environment number                                              1
 GLOBAL| Basis set file name                                     EMSL_BASIS_SETS
 GLOBAL| Potential file name                                           POTENTIAL
 GLOBAL| MM Potential file name                                     MM_POTENTIAL
 GLOBAL| Coordinate file name                                           mqae.pdb
 GLOBAL| Method name                                                        CP2K
 GLOBAL| Project name                                                 MQAE-B3LYP
 GLOBAL| Run type                                                             MD
 GLOBAL| FFT library                                                       FFTW3
 GLOBAL| Diagonalization library                                            ELPA
 GLOBAL| Minimum number of eigenvectors for ELPA usage                        16
 GLOBAL| Orthonormality check for eigenvectors                          DISABLED
 GLOBAL| Matrix multiplication library                                     COSMA
 GLOBAL| All-to-all communication in single precision                          F
 GLOBAL| FFTs using library dependent lengths                                  F
 GLOBAL| Grid backend                                                       AUTO
 GLOBAL| Global print level                                                  LOW
 GLOBAL| MPI I/O enabled                                                       T
 GLOBAL| Total number of message passing processes                             4
 GLOBAL| Number of threads for this process                                   10
 GLOBAL| This output is from process                                           0
 GLOBAL| CPU model name                 Intel(R) Xeon(R) Gold 6248 CPU @ 2.50GHz
 GLOBAL| CPUID                                                              1003

 MEMORY| system memory details [Kb]
 MEMORY|                        rank 0           min           max       average
 MEMORY| MemTotal            394534900     394534900     394534900     394534900
 MEMORY| MemFree             387574496     387574496     387574528     387574520
 MEMORY| Buffers                     0             0             0             0
 MEMORY| Cached                 898712        898708        898712        898709
 MEMORY| Slab                   939220        939220        939220        939220
 MEMORY| SReclaimable           164716        164716        164716        164716
 MEMORY| MemLikelyFree       388637924     388637924     388637952     388637945



                      ************* ******** ***********   
                     ************* **********************  
                     ****     **** ****      ***********   
                     ******** ****  *******     ****       
                     *******  ****   *******   ****        
                     ****     ****       ****  ****        
                     ****     **** **********  ****        
                      ****     **** ********    ****       
                     FRONTIERS IN SIMULATION TECHNOLOGY    
                                                           
                        C.J. Mundy, S. Balasubramanian,    
                     Ken Bagchi, J. Hutter, Ari Seitsonen  
                      IFW Kuo, T. Laino, J. VandeVondele   
                                 Version 1.0               

                                                           


 EWALD| Summation is done by:                                               SPME
 EWALD| Alpha parameter [       ANGSTROM^-1]                              0.4000
 EWALD| Real Space Cutoff [          ANGSTROM]                            8.4348
 EWALD| G-space max. Miller index                         80        80        80
 EWALD| Spline interpolation order                                             6

 FORCEFIELD| WARNING: A non Critical ForceField parameter is missing! CP2K GOES!
 FORCEFIELD| Non critical parameters are:Urey-Bradley,Torsions,Impropers, Opbends and 1-4
 FORCEFIELD| All missing parameters will not contribute to the potential energy!
 FORCEFIELD| Activate the print key FF_INFO to have a list of missing parameters

 CHARGE_INFO| Total Charge of the Classical System:                     0.000000

 SPLINE_INFO| Generating 465 splines for NONBONDED14 interactions 
              Due to 30 different atomic kinds
  ...46  ...92  ...138  ...184  ...230  ...276  ...322  ...368  ...414  ...460
 SPLINE_INFO| Number of unique splines computed:            22
 SPLINE_INFO| Done

 SPLINE_INFO| Generating 465 splines for NONBONDED interactions 
              Due to 30 different atomic kinds
  ...46  ...92  ...138  ...184  ...230  ...276  ...322  ...368  ...414  ...460
 SPLINE_INFO| Number of unique splines computed:            22
 SPLINE_INFO| Done

 *******************************************************************************
 *******************************************************************************
 **                                                                           **
 **     #####                         ##              ##                      **
 **    ##   ##            ##          ##              ##                      **
 **   ##     ##                       ##            ######                    **
 **   ##     ##  ##   ##  ##   #####  ##  ##   ####   ##    #####    #####    **
 **   ##     ##  ##   ##  ##  ##      ## ##   ##      ##   ##   ##  ##   ##   **
 **   ##  ## ##  ##   ##  ##  ##      ####     ###    ##   ######   ######    **
 **    ##  ###   ##   ##  ##  ##      ## ##      ##   ##   ##       ##        **
 **     #######   #####   ##   #####  ##  ##  ####    ##    #####   ##        **
 **           ##                                                    ##        **
 **                                                                           **
 **                                                ... make the atoms dance   **
 **                                                                           **
 **            Copyright (C) by CP2K developers group (2000-2021)             **
 **                      J. Chem. Phys. 152, 194103 (2020)                    **
 **                                                                           **
 *******************************************************************************


 TOTAL NUMBERS AND MAXIMUM NUMBERS

  Total number of            - Atomic kinds:                                   4
                             - Atoms:                                         34
                             - Shell sets:                                   120
                             - Shells:                                       156
                             - Primitive Cartesian functions:                278
                             - Cartesian basis functions:                    350
                             - Spherical basis functions:                    332

  Maximum angular momentum of- Orbital basis functions:                        2
                             - Local part of the GTH pseudopotential:          2
                             - Non-local part of the GTH pseudopotential:      0


 SCF PARAMETERS         Density guess:                                   RESTART
                        --------------------------------------------------------
                        max_scf:                                              20
                        max_scf_history:                                       0
                        max_diis:                                              4
                        --------------------------------------------------------
                        eps_scf:                                        1.00E-06
                        eps_scf_history:                                0.00E+00
                        eps_diis:                                       1.00E-01
                        eps_eigval:                                     1.00E-05
                        --------------------------------------------------------
                        level_shift [a.u.]:                                 0.00
                        --------------------------------------------------------
                        Outer loop SCF in use 
                        No variables optimised in outer loop
                        eps_scf                                         1.00E-06
                        max_scf                                               20
                        No outer loop optimization
                        step_size                                       5.00E-01

 *******************************************************************************
 *******************************************************************************
 **                                                                           **
 **             #######  ##     ## ##     ## ##     ##                        **
 **            ##     ## ###   ### ###   ### ###   ###                        **
 **            ##     ## #### #### #### #### #### ####                        **
 **            ##     ## ## ### ## ## ### ## ## ### ##                        **
 **            ##  ## ## ##     ## ##     ## ##     ##                        **
 **            ##    ##  ##     ## ##     ## ##     ##  T.Laino and F.Mohamed **
 **             ##### ## ##     ## ##     ## ##     ##  2005 - 2015           **
 **                                                                           **
 **                                                     Calculation Started.. **
 *******************************************************************************
 *******************************************************************************

 MD_PAR| Molecular dynamics protocol (MD input parameters)
 MD_PAR| Ensemble type                                                       NVE
 MD_PAR| Number of time steps                                                  1
 MD_PAR| Time step [fs]                                                 1.000000
 MD_PAR| Temperature [K]                                              300.000000
 MD_PAR| Temperature tolerance [K]                                      0.000000
 MD_PAR| Print MD information every                                    1 step(s)
 MD_PAR| File type   Print frequency [steps]                          File names
 MD_PAR| Coordinates          1                             MQAE-B3LYP-pos-1.xyz
 MD_PAR| Velocities           1                             MQAE-B3LYP-vel-1.xyz
 MD_PAR| Energies             1                                MQAE-B3LYP-1.ener
 MD_PAR| Dump                20                             MQAE-B3LYP-1.restart

 ROT| Rotational analysis information
 ROT| Principal axes and moments of inertia [a.u.]
 ROT|                           1                   2                   3
 ROT| Eigenvalues      8.77944938721E+03   1.29891690960E+07   1.29979485454E+07
 ROT|      x             -0.558379687797      0.617732459818     -0.553731642894
 ROT|      y             -0.569867814832     -0.770688439612     -0.285114016960
 ROT|      z             -0.602878758851      0.156351965563      0.782362617327
 ROT| Number of rotovibrational vectors                                        6

 DOF| Calculation of degrees of freedom
 DOF| Number of atoms                                                       7186
 DOF| Number of intramolecular constraints                                     0
 DOF| Number of intermolecular constraints                                     0
 DOF| Invariants (translations + rotations)                                    3
 DOF| Degrees of freedom                                                   21555

 DOF| Restraints information
 DOF| Number of intramolecular restraints                                      0
 DOF| Number of intermolecular restraints                                      0

 MD_VEL| Velocities initialization
 MD_VEL| Initial temperature [K]                                      300.000000
 MD_VEL| COM velocity            -0.0000000000     0.0000000000    -0.0000000000

  Translating the system in order to center the QM fragment in the QM box.

 Number of electrons:                                                         94
 Number of occupied orbitals:                                                 47
 Number of molecular orbitals:                                                47

 Number of orbital functions:                                                332
 Number of independent orbital functions:                                    332

 Extrapolation method: initial_guess


 SCF WAVEFUNCTION OPTIMIZATION

  ----------------------------------- OT ---------------------------------------
  Minimizer      : DIIS                : direct inversion
                                         in the iterative subspace
                                         using   7 DIIS vectors
                                         safer DIIS on
  Preconditioner : FULL_ALL            : diagonalization, state selective
  Precond_solver : DEFAULT
  stepsize       :    0.15000000                  energy_gap     :    0.08000000
  eps_taylor     :   0.10000E-15                  max_taylor     :             4
  ----------------------------------- OT ---------------------------------------

  Step     Update method      Time    Convergence         Total energy    Change
  ------------------------------------------------------------------------------
  Decoupling Energy:                                               0.0724473675
  Recoupling Energy:                                              -0.0186060468
     1 OT DIIS     0.15E+00    8.5     0.00000025      -146.5978854948 -1.47E+02

  *** SCF run converged in     1 steps ***


  Electronic density on regular grids:        -94.0000117893       -0.0000117893
  Core density on regular grids:               94.9999999999       -0.0000000001
  Total charge density on r-space grids:        0.9999882107
  Total charge density g-space grids:           0.9999882107

  Overlap energy of the core charge distribution:               0.00000599177744
  Self energy of the core charge distribution:               -359.57183942644110
  Core Hamiltonian energy:                                    110.60578196111661
  Hartree energy:                                             145.61977572058623
  Exchange-correlation energy:                                -35.09004203380520
  Hartree-Fock Exchange energy:                                -7.83563029227319
  QM/MM Electrostatic energy:                                  -0.32593741578499

  Total energy:                                              -146.59788549482423

  outer SCF iter =    1 RMS gradient =   0.25E-06 energy =       -146.5978854948
  outer SCF loop converged in   1 iterations or    1 steps

  Decoupling Energy:                                               0.0724473841
  Recoupling Energy:                                              -0.0186060464

 ENERGY| Total FORCE_EVAL ( QMMM ) energy [a.u.]:           -125.274785505649959

 MD_INI| MD initialization
 MD_INI| Potential energy [hartree]                          -0.125274785506E+03
 MD_INI| Total kinetic energy [hartree]                       0.102391057087E+02
 MD_INI| QM kinetic energy [hartree]                          0.538313910515E-01
 MD_INI| Total temperature [K]                                        300.000000
 MD_INI| QM temperature [K]                                           333.305658
 MD_INI| Cell volume [bohr^3]                                 4.911308927827E+05
 MD_INI| Cell volume [ang^3]                                  7.277808868775E+04
 MD_INI| Cell lengths [bohr]      7.88979558E+01  7.88979558E+01  7.88979558E+01
 MD_INI| Cell lengths [ang]       4.17510000E+01  4.17510000E+01  4.17510000E+01
 MD_INI| Cell angles [deg]        9.00000000E+01  9.00000000E+01  9.00000000E+01

  Translating the system in order to center the QM fragment in the QM box.

 Number of electrons:                                                         94
 Number of occupied orbitals:                                                 47
 Number of molecular orbitals:                                                47

 Number of orbital functions:                                                332
 Number of independent orbital functions:                                    332

 Extrapolation method: ASPC


 SCF WAVEFUNCTION OPTIMIZATION

  ----------------------------------- OT ---------------------------------------
  Minimizer      : DIIS                : direct inversion
                                         in the iterative subspace
                                         using   7 DIIS vectors
                                         safer DIIS on
  Preconditioner : FULL_ALL            : diagonalization, state selective
  Precond_solver : DEFAULT
  stepsize       :    0.15000000                  energy_gap     :    0.08000000
  eps_taylor     :   0.10000E-15                  max_taylor     :             4
  ----------------------------------- OT ---------------------------------------

  Step     Update method      Time    Convergence         Total energy    Change
  ------------------------------------------------------------------------------
  Decoupling Energy:                                               0.0724407826
  Recoupling Energy:                                              -0.0186065708
     1 OT DIIS     0.15E+00    4.5     0.00263037      -146.4802501136 -1.46E+02
  Decoupling Energy:                                               0.0723365316
  Recoupling Energy:                                              -0.0186021826
     2 OT DIIS     0.15E+00    0.9     0.00099624      -146.4905838941 -1.03E-02
  Decoupling Energy:                                               0.0723590125
  Recoupling Energy:                                              -0.0186027231
     3 OT DIIS     0.15E+00    0.9     0.00037681      -146.4922803081 -1.70E-03
  Decoupling Energy:                                               0.0723311219
  Recoupling Energy:                                              -0.0186016346
     4 OT DIIS     0.15E+00    0.9     0.00013916      -146.4924802546 -2.00E-04
  Decoupling Energy:                                               0.0723461377
  Recoupling Energy:                                              -0.0186022886
     5 OT DIIS     0.15E+00    0.9     0.00005108      -146.4924955753 -1.53E-05
  Decoupling Energy:                                               0.0723413020
  Recoupling Energy:                                              -0.0186020528
     6 OT DIIS     0.15E+00    0.9     0.00001941      -146.4924979307 -2.36E-06
  Decoupling Energy:                                               0.0723421382
  Recoupling Energy:                                              -0.0186021340
     7 OT DIIS     0.15E+00    0.9     0.00000594      -146.4924982502 -3.19E-07
  Decoupling Energy:                                               0.0723424422
  Recoupling Energy:                                              -0.0186021302
     8 OT DIIS     0.15E+00    0.9     0.00000286      -146.4924982937 -4.35E-08
  Decoupling Energy:                                               0.0723422725
  Recoupling Energy:                                              -0.0186021330
     9 OT DIIS     0.15E+00    0.9     0.00000098      -146.4924983001 -6.41E-09

  *** SCF run converged in     9 steps ***


  Electronic density on regular grids:        -93.9999622185        0.0000377815
  Core density on regular grids:               94.9999999999       -0.0000000001
  Total charge density on r-space grids:        1.0000377814
  Total charge density g-space grids:           1.0000377814

  Overlap energy of the core charge distribution:               0.00003300554688
  Self energy of the core charge distribution:               -359.57183942644110
  Core Hamiltonian energy:                                    110.79920978137035
  Hartree energy:                                             145.51960219154884
  Exchange-correlation energy:                                -35.13733571634181
  Hartree-Fock Exchange energy:                                -7.84763450980453
  QM/MM Electrostatic energy:                                  -0.25453362599018

  Total energy:                                              -146.49249830011158

  outer SCF iter =    1 RMS gradient =   0.98E-06 energy =       -146.4924983001
  outer SCF loop converged in   1 iterations or    9 steps

  Decoupling Energy:                                               0.0723422902
  Recoupling Energy:                                              -0.0186021301

 ENERGY| Total FORCE_EVAL ( QMMM ) energy [a.u.]:           -154.709368851978610

 MD| ***************************************************************************
 MD| Step number                                                               1
 MD| Time [fs]                                                          1.000000
 MD| Conserved quantity [hartree]                            -0.123704339461E+03
 MD| ---------------------------------------------------------------------------
 MD|                                          Instantaneous             Averages
 MD| CPU time per MD step [s]                     52.024796            52.024796
 MD| Energy drift per atom [K]          -0.380927213092E+03   0.000000000000E+00
 MD| Potential energy [hartree]         -0.154709368852E+03  -0.154709368852E+03
 MD| Total kinetic energy [hartree]      0.310050293907E+02   0.310050293907E+02
 MD| QM kinetic energy [hartree]         0.223316761228E+00   0.223316761228E+00
 MD| Total temperature [K]                       908.429806           908.429806
 MD| QM temperature [K]                         1382.701405          1382.701405
 MD| ***************************************************************************

 -------------------------------------------------------------------------------
 -                                                                             -
 -                                DBCSR STATISTICS                             -
 -                                                                             -
 -------------------------------------------------------------------------------
 COUNTER                                    TOTAL       BLAS       SMM       ACC
 flops    15 x    15 x    15               621000       0.0%      0.0%    100.0%
 flops    15 x    15 x    32              1324800       0.0%      0.0%    100.0%
 flops    15 x    32 x    15              1324800       0.0%      0.0%    100.0%
 flops    32 x    15 x    15              1324800       0.0%      0.0%    100.0%
 flops     5 x     5 x    15              1428000       0.0%      0.0%    100.0%
 flops    15 x    15 x     5              1512000       0.0%      0.0%    100.0%
 flops     5 x    15 x    15              1872000       0.0%      0.0%    100.0%
 flops    32 x    32 x    15              2826240       0.0%      0.0%    100.0%
 flops    15 x    32 x    32              2826240       0.0%      0.0%    100.0%
 flops    32 x    15 x    32              2826240       0.0%      0.0%    100.0%
 flops     5 x     5 x    32              3046400       0.0%      0.0%    100.0%
 flops    15 x    32 x     5              3225600       0.0%      0.0%    100.0%
 flops    32 x    15 x     5              3225600       0.0%      0.0%    100.0%
 flops     5 x    32 x    15              3840000       0.0%      0.0%    100.0%
 flops     5 x    15 x    32              3840000       0.0%      0.0%    100.0%
 flops    14 x     5 x    15              4233600       0.0%      0.0%    100.0%
 flops     5 x    14 x    15              4233600       0.0%      0.0%    100.0%
 flops    15 x    15 x    14              4762800       0.0%      0.0%    100.0%
 flops    14 x    15 x    15              5896800       0.0%      0.0%    100.0%
 flops    32 x    32 x    32              6029312       0.0%      0.0%    100.0%
 flops    32 x    32 x     5              6881280       0.0%      0.0%    100.0%
 flops     5 x    32 x    32              8519680       0.0%      0.0%    100.0%
 flops    14 x     5 x    32              9031680       0.0%      0.0%    100.0%
 flops     5 x    14 x    32              9031680       0.0%      0.0%    100.0%
 flops    15 x    32 x    14             10160640       0.0%      0.0%    100.0%
 flops    32 x    15 x    14             10160640       0.0%      0.0%    100.0%
 flops     5 x    15 x     5             11136000       0.0%      0.0%    100.0%
 flops    14 x    32 x    15             12096000       0.0%      0.0%    100.0%
 flops    14 x    15 x    32             12096000       0.0%      0.0%    100.0%
 flops    14 x    14 x    15             14076720       0.0%      0.0%    100.0%
 flops    32 x    32 x    14             21676032       0.0%      0.0%    100.0%
 flops     5 x    32 x     5             23756800       0.0%      0.0%    100.0%
 flops    14 x    32 x    32             26836992       0.0%      0.0%    100.0%
 flops    14 x    14 x    32             30030336       0.0%      0.0%    100.0%
 flops     5 x    15 x    14             35078400       0.0%      0.0%    100.0%
 flops    14 x    15 x     5             35078400       0.0%      0.0%    100.0%
 flops    14 x    32 x     5             74833920       0.0%      0.0%    100.0%
 flops     5 x    32 x    14             74833920       0.0%      0.0%    100.0%
 flops    14 x    15 x    14            110496960       0.0%      0.0%    100.0%
 flops    14 x    32 x    14            235726848       0.0%      0.0%    100.0%
 flops inhomo. stacks                           0       0.0%      0.0%      0.0%
 flops total                       831.758760E+06       0.0%      0.0%    100.0%
 flops max/rank                    287.059104E+06       0.0%      0.0%    100.0%
 matmuls inhomo. stacks                         0       0.0%      0.0%      0.0%
 matmuls total                             164140       0.0%      0.0%    100.0%
 number of processed stacks                 21688       0.0%      0.0%    100.0%
 average stack size                                     0.0       0.0       7.6
 marketing flops                   905.908480E+06
 -------------------------------------------------------------------------------
 # multiplications                            260
 max memory usage/rank               2.945860E+09
 # max total images/rank                        1
 # max 3D layers                                1
 # MPI messages exchanged                    2080
 MPI messages size (bytes):
  total size                        83.011872E+06
  min size                           0.000000E+00
  max size                         220.448000E+03
  average size                      39.909555E+03
 MPI breakdown and total messages size (bytes):
             size <=      128                  20                        0
       128 < size <=     8192                 940                  4155232
      8192 < size <=    32768                 444                  8844480
     32768 < size <=   131072                 444                 18868224
    131072 < size <=  4194304                 232                 51143936
   4194304 < size <= 16777216                   0                        0
  16777216 < size                               0                        0
 -------------------------------------------------------------------------------
 -                                                                             -
 -                      DBCSR MESSAGE PASSING PERFORMANCE                      -
 -                                                                             -
 -------------------------------------------------------------------------------
 ROUTINE             CALLS      AVE VOLUME [Bytes]
 MP_Bcast               41                     12.
 MP_Allreduce          998                     10.
 MP_Alltoall          1157                  13628.
 MP_ISend             2072                  12214.
 MP_IRecv             2072                  10843.
 -------------------------------------------------------------------------------

 -------------------------------------------------------------------------------
 -                                                                             -
 -                                GRID STATISTICS                              -
 -                                                                             -
 -------------------------------------------------------------------------------
 LP    KERNEL             BACKEND                              COUNT     PERCENT
 1     collocate ortho    GPU                                  80138      21.45%
 1     integrate ortho    GPU                                  73914      19.79%
 2     integrate ortho    GPU                                  54224      14.52%
 2     collocate ortho    GPU                                  49046      13.13%
 0     collocate ortho    GPU                                  42762      11.45%
 0     integrate ortho    GPU                                  35633       9.54%
 3     integrate ortho    GPU                                  19173       5.13%
 3     collocate ortho    GPU                                  13196       3.53%
 4     integrate ortho    GPU                                   3498       0.94%
 4     collocate ortho    GPU                                   1560       0.42%
 5     integrate ortho    GPU                                    260       0.07%
 0     collocate general  REF                                     68       0.02%
 1     integrate general  REF                                     68       0.02%
 -------------------------------------------------------------------------------

 MEMORY| Estimated peak process memory [MiB]                                2810

 -------------------------------------------------------------------------------
 -                                                                             -
 -                         MESSAGE PASSING PERFORMANCE                         -
 -                                                                             -
 -------------------------------------------------------------------------------

 ROUTINE             CALLS      AVE VOLUME [Bytes]
 MP_Group                8
 MP_Bcast              478                6663614.
 MP_Allreduce          797                 264859.
 MP_Sync                91
 MP_Alltoall           216               61901938.
 MP_ISendRecv          402                2824309.
 MP_Wait               468
 MP_ISend               50                 222945.
 MP_IRecv               48                 221867.
 MP_Recv                 2                  63744.
 -------------------------------------------------------------------------------


 -------------------------------------------------------------------------------
 -                                                                             -
 -                           R E F E R E N C E S                               -
 -                                                                             -
 -------------------------------------------------------------------------------
 
 CP2K version 8.2, the CP2K developers group (2021).
 CP2K is freely available from https://www.cp2k.org/ .

 Kuehne,Thomas D.; Iannuzzi,Marcella; Del Ben,Mauro;
 Rybkin,Vladimir V.; Seewald,Patrick; Stein,Frederick; Laino,Teodoro;
 Khaliullin,Rustam Z.; Schuett,Ole; Schiffmann,Florian; Golze,Dorothea;
 Wilhelm,Jan; Chulkov,Sergey; Bani-Hashemian,Mohammad Hossein;
 Weber,Valery; Borstnik,Urban; Taillefumier,Mathieu;
 Jakobovits,Alice Shoshana; Lazzaro,Alfio; Pabst,Hans; Mueller,Tiziano;
 Schade,Robert; Guidon,Manuel; Andermatt,Samuel; Holmberg,Nico;
 Schenter,Gregory K.; Hehn,Anna; Bussy,Augustin; Belleflamme,Fabian;
 Tabacchi,Gloria; Gloess,Andreas; Lass,Michael; Bethune,Iain;
 Mundy,Christopher J.; Plessl,Christian; Watkins,Matt;
 VandeVondele,Joost; Krack,Matthias; Hutter,Juerg. 
 The Journal of Chemical Physics, 152 (19), (2020). 
 CP2K: An electronic structure and molecular dynamics software package -
 Quickstep: Efficient and accurate electronic structure calculations.
 https://doi.org/10.1063/5.0007045

 Schuett, Ole; Messmer, Peter; Hutter, Juerg; VandeVondele, Joost. 
 Electronic Structure Calculations on Graphics Processing Units, John
 Wiley & Sons, Ltd, 173-190 (2016). 
 GPU-Accelerated Sparse Matrix-Matrix Multiplication for
 Linear Scaling Density Functional Theory.
 https://doi.org/10.1002/9781118670712.ch8

 Heinecke, A; Henry, G; Hutchinson, M; Pabst, H. 
 Proceedings of Intl. Supercomputing Conference, 981-991 (2016). 
 LIBXSMM: Accelerating Small Matrix Multiplications
 by Runtime Code Generation.
 https://doi.org/10.1109/SC.2016.83

 Borstnik, U; VandeVondele, J; Weber, V; Hutter, J. 
 PARALLEL COMPUTING, 40 (5-6), 47-58 (2014). 
 Sparse matrix multiplication: The distributed block-compressed sparse
 row library.
 https://doi.org/10.1016/j.parco.2014.03.012

 Hutter, J; Iannuzzi, M; Schiffmann, F; VandeVondele, J. 
 WIREs Comput Mol Sci., 4 (1), 15-25 (2014). 
 CP2K: atomistic simulations of condensed matter systems.
 https://doi.org/10.1002/wcms.1159

 Marek, A; Blum, V; Johanni, R; Havu, V; Lang, B; Auckenthaler, T;
 Heinecke, A; Bungartz, H; Lederer, H. 
 Journal of Physics: Condensed Matter, 26 (21), (2014). 
 The ELPA library: scalable parallel eigenvalue solutions for
 electronic structure
 theory and computational science.
 https://doi.org/10.1088/0953-8984/26/21/213201

 Guidon, M; Hutter, J; VandeVondele, J. 
 JOURNAL OF CHEMICAL THEORY AND COMPUTATION, 5 (11), 3010-3021 (2009). 
 Robust Periodic Hartree-Fock Exchange for Large-Scale Simulations Using
 Gaussian Basis Sets.
 https://doi.org/10.1021/ct900494g

 Guidon, M; Schiffmann, F; Hutter, J; VandeVondele, J. 
 JOURNAL OF CHEMICAL PHYSICS, 128 (21), 214104 (2008). 
 Ab initio molecular dynamics using hybrid density functionals.
 https://doi.org/10.1063/1.2931945

 Kuhne, TD; Krack, M; Mohamed, FR; Parrinello, M. 
 PHYSICAL REVIEW LETTERS, 98 (6), 066401 (2007). 
 Efficient and accurate Car-Parrinello-like approach to
 Born-Oppenheimer molecular dynamics.
 https://doi.org/10.1103/PhysRevLett.98.066401

 Laino, T; Mohamed, F; Laio, A; Parrinello, M. 
 JOURNAL OF CHEMICAL THEORY AND COMPUTATION, 2 (5), 1370-1378 (2006). 
 An efficient linear-scaling electrostatic coupling for treating
 periodic boundary conditions in QM/MM simulations.
 https://doi.org/10.1021/ct6001169

 Laino, T; Mohamed, F; Laio, A; Parrinello, M. 
 JOURNAL OF CHEMICAL THEORY AND COMPUTATION, 1 (6), 1176-1184 (2005). 
 An efficient real space multigrid QM/MM electrostatic coupling.
 https://doi.org/10.1021/ct050123f

 Krack, M. 
 THEORETICAL CHEMISTRY ACCOUNTS, 114 (1-3), 145-152 (2005). 
 Pseudopotentials for H to Kr optimized for gradient-corrected
 exchange-correlation functionals.
 https://doi.org/10.1007/s00214-005-0655-y

 VandeVondele, J; Krack, M; Mohamed, F; Parrinello, M; Chassaing, T;
 Hutter, J. COMPUTER PHYSICS COMMUNICATIONS, 167 (2), 103-128 (2005). 
 QUICKSTEP: Fast and accurate density functional calculations using a
 mixed Gaussian and plane waves approach.
 https://doi.org/10.1016/j.cpc.2004.12.014

 Frigo, M; Johnson, SG. 
 PROCEEDINGS OF THE IEEE, 93 (2), 216-231 (2005). 
 The design and implementation of FFTW3.
 https://doi.org/10.1109/JPROC.2004.840301

 Kolafa, J. 
 JOURNAL OF COMPUTATIONAL CHEMISTRY, 25 (3), 335-342 (2004). 
 Time-reversible always stable predictor-corrector method for molecular dynamics of polarizable molecules.
 https://doi.org/10.1002/jcc.10385

 VandeVondele, J; Hutter, J. 
 JOURNAL OF CHEMICAL PHYSICS, 118 (10), 4365-4369 (2003). 
 An efficient orbital transformation method for electronic structure
 calculations.
 https://doi.org/10.1063/1.1543154

 Hartwigsen, C; Goedecker, S; Hutter, J. 
 PHYSICAL REVIEW B, 58 (7), 3641-3662 (1998). 
 Relativistic separable dual-space Gaussian pseudopotentials from H to Rn.
 https://doi.org/10.1103/PhysRevB.58.3641

 Lippert, G; Hutter, J; Parrinello, M. 
 MOLECULAR PHYSICS, 92 (3), 477-487 (1997). 
 A hybrid Gaussian and plane wave density functional scheme.
 https://doi.org/10.1080/002689797170220

 Goedecker, S; Teter, M; Hutter, J. 
 PHYSICAL REVIEW B, 54 (3), 1703-1710 (1996). 
 Separable dual-space Gaussian pseudopotentials.
 https://doi.org/10.1103/PhysRevB.54.1703

 ESSMANN, U; PERERA, L; BERKOWITZ, ML; DARDEN, T; LEE, H; PEDERSEN, LG. 
 JOURNAL OF CHEMICAL PHYSICS, 103 (19), 8577-8593 (1995). 
 A SMOOTH PARTICLE MESH EWALD METHOD.
 https://doi.org/10.1063/1.470117

 BLOCHL, PE. 
 JOURNAL OF CHEMICAL PHYSICS, 103 (17), 7422-7428 (1995). 
 ELECTROSTATIC DECOUPLING OF PERIODIC IMAGES OF PLANE-WAVE-EXPANDED
 DENSITIES AND DERIVED ATOMIC POINT CHARGES.
 https://doi.org/10.1063/1.470314

 BECKE, AD. PHYSICAL REVIEW A, 38 (6), 3098-3100 (1988). 
 DENSITY-FUNCTIONAL EXCHANGE-ENERGY APPROXIMATION WITH CORRECT
 ASYMPTOTIC-BEHAVIOR.
 https://doi.org/10.1103/PhysRevA.38.3098

 LEE, CT; YANG, WT; PARR, RG. 
 PHYSICAL REVIEW B, 37 (2), 785-789 (1988). 
 DEVELOPMENT OF THE COLLE-SALVETTI CORRELATION-ENERGY FORMULA INTO A
 FUNCTIONAL OF THE ELECTRON-DENSITY.
 https://doi.org/10.1103/PhysRevB.37.785

 VOSKO, SH; WILK, L; NUSAIR, M. 
 CANADIAN JOURNAL OF PHYSICS, 58 (8), 1200-1211 (1980). 
 ACCURATE SPIN-DEPENDENT ELECTRON LIQUID CORRELATION ENERGIES FOR LOCAL
 SPIN-DENSITY CALCULATIONS - A CRITICAL ANALYSIS.
 https://doi.org/10.1139/p80-159


 -------------------------------------------------------------------------------
 -                                                                             -
 -                                T I M I N G                                  -
 -                                                                             -
 -------------------------------------------------------------------------------
 SUBROUTINE                       CALLS  ASD         SELF TIME        TOTAL TIME
                                MAXIMUM       AVERAGE  MAXIMUM  AVERAGE  MAXIMUM
 CP2K                                 1  1.0    0.080    0.082   53.500   53.501
 qs_mol_dyn_low                       1  2.0    0.003    0.003   52.086   52.153
 qs_forces                            2  3.5    0.000    0.000   36.031   36.031
 rebuild_ks_matrix                   12  8.3    0.000    0.000   29.365   29.371
 qs_ks_build_kohn_sham_matrix        12  9.3    0.002    0.002   29.365   29.370
 velocity_verlet                      1  3.0    0.001    0.001   25.650   25.658
 qs_energies                          2  4.5    0.000    0.000   23.599   23.600
 hfx_ks_matrix                       12 10.3    0.000    0.000   23.072   23.081
 scf_env_do_scf                       2  5.5    0.000    0.000   20.532   20.532
 qs_ks_update_qs_env                 12  7.8    0.000    0.000   16.953   16.957
 init_scf_loop                        2  6.5    0.000    0.000   12.496   12.496
 qs_ks_update_qs_env_forces           2  4.5    0.000    0.000   12.414   12.414
 integrate_four_center               12 11.3    0.570    0.779   12.187   12.196
 derivatives_four_center              2  8.5    0.076    0.298   10.883   10.883
 derivatives_four_center_main         2  9.5    0.037    0.069   10.558   10.559
 derivatives_four_center_bin        169 10.6   10.447   10.471   10.447   10.471
 qmmm_el_coupling                     2  3.5    0.000    0.000    9.906    9.925
 qmmm_elec_with_gaussian              2  4.5    0.008    0.008    9.904    9.924
 integrate_four_center_main          12 12.3    0.027    0.030    9.373    9.480
 integrate_four_center_bin          815 13.3    9.346    9.450    9.346    9.450
 qmmm_elec_with_gaussian_low          2  5.5    0.000    0.000    8.575    8.687
 qmmm_elec_gaussian_low_G             2  6.5    8.210    8.322    8.210    8.322
 scf_env_do_scf_inner_loop           10  6.9    0.000    0.001    8.034    8.035
 pw_transfer                        262 11.7    0.016    0.017    5.032    5.193
 fft_wrap_pw1pw2                    216 12.9    0.002    0.002    4.953    5.112
 fft_wrap_pw1pw2_200                136 14.2    0.001    0.001    4.398    4.557
 dbcsr_multiply_generic             260 12.8    0.009    0.009    4.394    4.421
 multiply_cannon                    260 13.8    0.062    0.072    4.091    4.250
 qmmm_forces                          2  3.5    0.001    0.001    4.125    4.125
 multiply_cannon_loop               260 14.8    0.015    0.015    3.928    4.073
 qmmm_forces_with_gaussian            2  4.5    0.013    0.013    3.972    4.013
 qs_vxc_create                       12 10.3    0.000    0.000    3.670    3.675
 xc_vxc_pw_create                    12 11.3    0.126    0.133    3.670    3.675
 multiply_cannon_multrec            520 15.8    2.057    3.101    3.091    3.268
 init_scf_run                         2  5.5    0.000    0.000    2.745    2.745
 scf_env_initial_rho_setup            2  6.5    0.000    0.000    2.745    2.745
 qmmm_force_with_gaussian_low         2  5.5    0.000    0.000    2.601    2.629
 pw_cuda_r3dc1d_3d_ps               100 14.6    0.002    0.002    2.450    2.577
 pw_cuda_c1dr3d_3d_ps               116 15.2    0.002    0.002    2.499    2.555
 calculate_first_density_matrix       1  7.0    0.000    0.000    2.394    2.408
 qmmm_forces_gaussian_low_G           2  6.5    2.198    2.246    2.198    2.246
 dbcsr_mm_accdrv_process            390 16.2    0.776    1.746    1.016    2.125
 pw_integral_ab                     868  6.9    2.027    2.054    2.086    2.110
 xc_rho_set_and_dset_create          12 12.3    0.125    0.134    1.846    1.938
 qs_rho_update_rho                   12  7.9    0.000    0.000    1.803    1.812
 calculate_rho_elec                  12  8.9    0.091    0.091    1.803    1.812
 calculate_dm_sparse                 12  9.7    0.000    0.000    1.606    1.620
 density_rs2pw                       12  9.9    0.000    0.001    1.583    1.608
 cp_dbcsr_plus_fm_fm_t_native         4  8.5    0.000    0.000    1.582    1.595
 mp_alltoall_z22v                   216 16.9    1.434    1.570    1.434    1.570
 fist_calc_energy_force               2  3.5    0.001    0.001    1.437    1.468
 powell_optimize                 537390 13.0    1.090    1.330    1.090    1.330
 qmmm_env_create                      1  2.0    0.027    0.027    1.248    1.253
 rs_pw_transfer                     108 11.5    0.001    0.001    1.210    1.220
 pw_restrict_s3                       6  5.5    0.138    0.145    1.178    1.191
 prepare_preconditioner               2  7.5    0.000    0.000    1.148    1.148
 sum_up_and_integrate                12 10.3    0.033    0.041    1.130    1.141
 integrate_v_rspace                  12 11.3    0.001    0.002    1.097    1.108
 subspace_eigenvalues_ks_dbcsr        4  9.0    0.000    0.000    1.071    1.071
 -------------------------------------------------------------------------------

 The number of warnings for this run is : 0
 
 -------------------------------------------------------------------------------
  **** **** ******  **  PROGRAM ENDED AT                 2021-07-26 15:59:29.108
 ***** ** ***  *** **   PROGRAM RAN ON                                    r2i6n8
 **    ****   ******    PROGRAM RAN BY                                    hollyj
 ***** **    ** ** **   PROGRAM PROCESS ID                                 36239
  **** **  *******  **  PROGRAM STOPPED IN /lustre/home/w68/hollyj/CP2K/Cirrus/G
                                           PU/cp2kMD/MQAE-B3LYP/1STEPS/1NODES/36
                                           CPN/10THREADS
