 DBCSR| CPU Multiplication driver                                           XSMM
 DBCSR| Multrec recursion limit                                              512
 DBCSR| Multiplication stack size                                          30000
 DBCSR| Maximum elements for images                                    UNLIMITED
 DBCSR| Multiplicative factor virtual images                                   1
 DBCSR| Use multiplication densification                                       F
 DBCSR| Multiplication size stacks                                             3
 DBCSR| Use memory pool for CPU allocation                                     F
 DBCSR| Number of 3D layers                                               SINGLE
 DBCSR| Use MPI memory allocation                                              F
 DBCSR| Use RMA algorithm                                                      F
 DBCSR| Use Communication thread                                               T
 DBCSR| Communication thread load                                             53
 DBCSR| MPI: My node id                                                        0
 DBCSR| MPI: Number of nodes                                                  32
 DBCSR| OMP: Current number of threads                                        10
 DBCSR| OMP: Max number of threads                                            10
 DBCSR| ACC: Number of devices/node                                            4
 DBCSR| ACC: Number of priority stack-buffers                                 40
 DBCSR| ACC: Number of posterior stack-buffers                                80
 DBCSR| ACC: Number of priority streams                                        4
 DBCSR| ACC: Number of posterior streams                                       4
 DBCSR| ACC: Avoid driver after busy                                           F
 DBCSR| ACC: Process inhomogeneous stacks                                      T
 DBCSR| ACC: Min. flop for processing                                          0
 DBCSR| ACC: Min. flop for sorting                                          4000
 DBCSR| ACC: Number of binning bins                                         4096
 DBCSR| ACC: Size of binning bins                                             16
 DBCSR| Split modifier for TAS multiplication algorithm                  1.0E+00


  **** **** ******  **  PROGRAM STARTED AT               2021-07-26 16:34:39.027
 ***** ** ***  *** **   PROGRAM STARTED ON                                r2i4n0
 **    ****   ******    PROGRAM STARTED BY                                hollyj
 ***** **    ** ** **   PROGRAM PROCESS ID                                 69289
  **** **  *******  **  PROGRAM STARTED IN /lustre/home/w68/hollyj/CP2K/Cirrus/G
                                           PU/cp2kMD/MQAE-B3LYP/6STEPS/8NODES/36
                                           CPN/10THREADS

 CP2K| version string:                                          CP2K version 8.2
 CP2K| source code revision number:                                  git:310b7ab
 CP2K| cp2kflags: omp libint fftw3 libxc elpa parallel mpi3 scalapack cosma pw_c
 CP2K|            uda xsmm cuda_profiling dbcsr_acc spglib mkl grid_cuda
 CP2K| is freely available from                            https://www.cp2k.org/
 CP2K| Program compiled at                          Thu Jul 22 18:07:58 BST 2021
 CP2K| Program compiled on                                                r2i5n7
 CP2K| Program compiled for                                           Cirrus-gcc
 CP2K| Data directory path       /lustre/home/w68/hollyj/CP2K/v8.2/cp2k-8.2/data
 CP2K| Input file name                                             mqae-cp2k.inp

 GLOBAL| Force Environment number                                              1
 GLOBAL| Basis set file name                                     EMSL_BASIS_SETS
 GLOBAL| Potential file name                                           POTENTIAL
 GLOBAL| MM Potential file name                                     MM_POTENTIAL
 GLOBAL| Coordinate file name                                           mqae.pdb
 GLOBAL| Method name                                                        CP2K
 GLOBAL| Project name                                                 MQAE-B3LYP
 GLOBAL| Run type                                                             MD
 GLOBAL| FFT library                                                       FFTW3
 GLOBAL| Diagonalization library                                            ELPA
 GLOBAL| Minimum number of eigenvectors for ELPA usage                        16
 GLOBAL| Orthonormality check for eigenvectors                          DISABLED
 GLOBAL| Matrix multiplication library                                     COSMA
 GLOBAL| All-to-all communication in single precision                          F
 GLOBAL| FFTs using library dependent lengths                                  F
 GLOBAL| Grid backend                                                       AUTO
 GLOBAL| Global print level                                                  LOW
 GLOBAL| MPI I/O enabled                                                       T
 GLOBAL| Total number of message passing processes                            32
 GLOBAL| Number of threads for this process                                   10
 GLOBAL| This output is from process                                           0
 GLOBAL| CPU model name                 Intel(R) Xeon(R) Gold 6248 CPU @ 2.50GHz
 GLOBAL| CPUID                                                              1003

 MEMORY| system memory details [Kb]
 MEMORY|                        rank 0           min           max       average
 MEMORY| MemTotal            394535408     394535408     394535408     394535408
 MEMORY| MemFree             387333064     387224620     387638912     387455831
 MEMORY| Buffers                     0             0             0             0
 MEMORY| Cached                 972956        848016        972956        902351
 MEMORY| Slab                   953648        855052        953648        912335
 MEMORY| SReclaimable           172404        155572        172404        166563
 MEMORY| MemLikelyFree       388478424     388294996     388668472     388524746



                      ************* ******** ***********   
                     ************* **********************  
                     ****     **** ****      ***********   
                     ******** ****  *******     ****       
                     *******  ****   *******   ****        
                     ****     ****       ****  ****        
                     ****     **** **********  ****        
                      ****     **** ********    ****       
                     FRONTIERS IN SIMULATION TECHNOLOGY    
                                                           
                        C.J. Mundy, S. Balasubramanian,    
                     Ken Bagchi, J. Hutter, Ari Seitsonen  
                      IFW Kuo, T. Laino, J. VandeVondele   
                                 Version 1.0               

                                                           


 EWALD| Summation is done by:                                               SPME
 EWALD| Alpha parameter [       ANGSTROM^-1]                              0.4000
 EWALD| Real Space Cutoff [          ANGSTROM]                            8.4348
 EWALD| G-space max. Miller index                         80        80        80
 EWALD| Spline interpolation order                                             6

 FORCEFIELD| WARNING: A non Critical ForceField parameter is missing! CP2K GOES!
 FORCEFIELD| Non critical parameters are:Urey-Bradley,Torsions,Impropers, Opbends and 1-4
 FORCEFIELD| All missing parameters will not contribute to the potential energy!
 FORCEFIELD| Activate the print key FF_INFO to have a list of missing parameters

 CHARGE_INFO| Total Charge of the Classical System:                     0.000000

 SPLINE_INFO| Generating 465 splines for NONBONDED14 interactions 
              Due to 30 different atomic kinds
  ...46  ...92  ...138  ...184  ...230  ...276  ...322  ...368  ...414  ...460
 SPLINE_INFO| Number of unique splines computed:            22
 SPLINE_INFO| Done

 SPLINE_INFO| Generating 465 splines for NONBONDED interactions 
              Due to 30 different atomic kinds
  ...46  ...92  ...138  ...184  ...230  ...276  ...322  ...368  ...414  ...460
 SPLINE_INFO| Number of unique splines computed:            22
 SPLINE_INFO| Done

 *******************************************************************************
 *******************************************************************************
 **                                                                           **
 **     #####                         ##              ##                      **
 **    ##   ##            ##          ##              ##                      **
 **   ##     ##                       ##            ######                    **
 **   ##     ##  ##   ##  ##   #####  ##  ##   ####   ##    #####    #####    **
 **   ##     ##  ##   ##  ##  ##      ## ##   ##      ##   ##   ##  ##   ##   **
 **   ##  ## ##  ##   ##  ##  ##      ####     ###    ##   ######   ######    **
 **    ##  ###   ##   ##  ##  ##      ## ##      ##   ##   ##       ##        **
 **     #######   #####   ##   #####  ##  ##  ####    ##    #####   ##        **
 **           ##                                                    ##        **
 **                                                                           **
 **                                                ... make the atoms dance   **
 **                                                                           **
 **            Copyright (C) by CP2K developers group (2000-2021)             **
 **                      J. Chem. Phys. 152, 194103 (2020)                    **
 **                                                                           **
 *******************************************************************************


 TOTAL NUMBERS AND MAXIMUM NUMBERS

  Total number of            - Atomic kinds:                                   4
                             - Atoms:                                         34
                             - Shell sets:                                   120
                             - Shells:                                       156
                             - Primitive Cartesian functions:                278
                             - Cartesian basis functions:                    350
                             - Spherical basis functions:                    332

  Maximum angular momentum of- Orbital basis functions:                        2
                             - Local part of the GTH pseudopotential:          2
                             - Non-local part of the GTH pseudopotential:      0


 SCF PARAMETERS         Density guess:                                   RESTART
                        --------------------------------------------------------
                        max_scf:                                              20
                        max_scf_history:                                       0
                        max_diis:                                              4
                        --------------------------------------------------------
                        eps_scf:                                        1.00E-06
                        eps_scf_history:                                0.00E+00
                        eps_diis:                                       1.00E-01
                        eps_eigval:                                     1.00E-05
                        --------------------------------------------------------
                        level_shift [a.u.]:                                 0.00
                        --------------------------------------------------------
                        Outer loop SCF in use 
                        No variables optimised in outer loop
                        eps_scf                                         1.00E-06
                        max_scf                                               20
                        No outer loop optimization
                        step_size                                       5.00E-01

 *******************************************************************************
 *******************************************************************************
 **                                                                           **
 **             #######  ##     ## ##     ## ##     ##                        **
 **            ##     ## ###   ### ###   ### ###   ###                        **
 **            ##     ## #### #### #### #### #### ####                        **
 **            ##     ## ## ### ## ## ### ## ## ### ##                        **
 **            ##  ## ## ##     ## ##     ## ##     ##                        **
 **            ##    ##  ##     ## ##     ## ##     ##  T.Laino and F.Mohamed **
 **             ##### ## ##     ## ##     ## ##     ##  2005 - 2015           **
 **                                                                           **
 **                                                     Calculation Started.. **
 *******************************************************************************
 *******************************************************************************

 MD_PAR| Molecular dynamics protocol (MD input parameters)
 MD_PAR| Ensemble type                                                       NVE
 MD_PAR| Number of time steps                                                  6
 MD_PAR| Time step [fs]                                                 1.000000
 MD_PAR| Temperature [K]                                              300.000000
 MD_PAR| Temperature tolerance [K]                                      0.000000
 MD_PAR| Print MD information every                                    1 step(s)
 MD_PAR| File type   Print frequency [steps]                          File names
 MD_PAR| Coordinates          1                             MQAE-B3LYP-pos-1.xyz
 MD_PAR| Velocities           1                             MQAE-B3LYP-vel-1.xyz
 MD_PAR| Energies             1                                MQAE-B3LYP-1.ener
 MD_PAR| Dump                20                             MQAE-B3LYP-1.restart

 ROT| Rotational analysis information
 ROT| Principal axes and moments of inertia [a.u.]
 ROT|                           1                   2                   3
 ROT| Eigenvalues      8.77944938721E+03   1.29891690960E+07   1.29979485454E+07
 ROT|      x             -0.558379687797      0.617732459818     -0.553731642894
 ROT|      y             -0.569867814832     -0.770688439612     -0.285114016960
 ROT|      z             -0.602878758851      0.156351965563      0.782362617327
 ROT| Number of rotovibrational vectors                                        6

 DOF| Calculation of degrees of freedom
 DOF| Number of atoms                                                       7186
 DOF| Number of intramolecular constraints                                     0
 DOF| Number of intermolecular constraints                                     0
 DOF| Invariants (translations + rotations)                                    3
 DOF| Degrees of freedom                                                   21555

 DOF| Restraints information
 DOF| Number of intramolecular restraints                                      0
 DOF| Number of intermolecular restraints                                      0

 MD_VEL| Velocities initialization
 MD_VEL| Initial temperature [K]                                      300.000000
 MD_VEL| COM velocity            -0.0000000000     0.0000000000    -0.0000000000

  Translating the system in order to center the QM fragment in the QM box.

 Number of electrons:                                                         94
 Number of occupied orbitals:                                                 47
 Number of molecular orbitals:                                                47

 Number of orbital functions:                                                332
 Number of independent orbital functions:                                    332

 Extrapolation method: initial_guess


 SCF WAVEFUNCTION OPTIMIZATION

  ----------------------------------- OT ---------------------------------------
  Minimizer      : DIIS                : direct inversion
                                         in the iterative subspace
                                         using   7 DIIS vectors
                                         safer DIIS on
  Preconditioner : FULL_ALL            : diagonalization, state selective
  Precond_solver : DEFAULT
  stepsize       :    0.15000000                  energy_gap     :    0.08000000
  eps_taylor     :   0.10000E-15                  max_taylor     :             4
  ----------------------------------- OT ---------------------------------------

  Step     Update method      Time    Convergence         Total energy    Change
  ------------------------------------------------------------------------------
  Decoupling Energy:                                               0.0724473675
  Recoupling Energy:                                              -0.0186060468
     1 OT DIIS     0.15E+00    4.9     0.00000025      -146.5978854948 -1.47E+02

  *** SCF run converged in     1 steps ***


  Electronic density on regular grids:        -94.0000117893       -0.0000117893
  Core density on regular grids:               94.9999999999       -0.0000000001
  Total charge density on r-space grids:        0.9999882107
  Total charge density g-space grids:           0.9999882107

  Overlap energy of the core charge distribution:               0.00000599177744
  Self energy of the core charge distribution:               -359.57183942644110
  Core Hamiltonian energy:                                    110.60578196111658
  Hartree energy:                                             145.61977572058646
  Exchange-correlation energy:                                -35.09004203380520
  Hartree-Fock Exchange energy:                                -7.83563029227318
  QM/MM Electrostatic energy:                                  -0.32593741578566

  Total energy:                                              -146.59788549482471

  outer SCF iter =    1 RMS gradient =   0.25E-06 energy =       -146.5978854948
  outer SCF loop converged in   1 iterations or    1 steps

  Decoupling Energy:                                               0.0724473841
  Recoupling Energy:                                              -0.0186060464

 ENERGY| Total FORCE_EVAL ( QMMM ) energy [a.u.]:           -125.274785505652744

 MD_INI| MD initialization
 MD_INI| Potential energy [hartree]                          -0.125274785506E+03
 MD_INI| Total kinetic energy [hartree]                       0.102391057087E+02
 MD_INI| QM kinetic energy [hartree]                          0.538313910515E-01
 MD_INI| Total temperature [K]                                        300.000000
 MD_INI| QM temperature [K]                                           333.305658
 MD_INI| Cell volume [bohr^3]                                 4.911308927827E+05
 MD_INI| Cell volume [ang^3]                                  7.277808868775E+04
 MD_INI| Cell lengths [bohr]      7.88979558E+01  7.88979558E+01  7.88979558E+01
 MD_INI| Cell lengths [ang]       4.17510000E+01  4.17510000E+01  4.17510000E+01
 MD_INI| Cell angles [deg]        9.00000000E+01  9.00000000E+01  9.00000000E+01

  Translating the system in order to center the QM fragment in the QM box.

 Number of electrons:                                                         94
 Number of occupied orbitals:                                                 47
 Number of molecular orbitals:                                                47

 Number of orbital functions:                                                332
 Number of independent orbital functions:                                    332

 Extrapolation method: ASPC


 SCF WAVEFUNCTION OPTIMIZATION

  ----------------------------------- OT ---------------------------------------
  Minimizer      : DIIS                : direct inversion
                                         in the iterative subspace
                                         using   7 DIIS vectors
                                         safer DIIS on
  Preconditioner : FULL_ALL            : diagonalization, state selective
  Precond_solver : DEFAULT
  stepsize       :    0.15000000                  energy_gap     :    0.08000000
  eps_taylor     :   0.10000E-15                  max_taylor     :             4
  ----------------------------------- OT ---------------------------------------

  Step     Update method      Time    Convergence         Total energy    Change
  ------------------------------------------------------------------------------
  Decoupling Energy:                                               0.0724407826
  Recoupling Energy:                                              -0.0186065708
     1 OT DIIS     0.15E+00    1.1     0.00263037      -146.4802501136 -1.46E+02
  Decoupling Energy:                                               0.0723365316
  Recoupling Energy:                                              -0.0186021826
     2 OT DIIS     0.15E+00    0.3     0.00099624      -146.4905838941 -1.03E-02
  Decoupling Energy:                                               0.0723590125
  Recoupling Energy:                                              -0.0186027231
     3 OT DIIS     0.15E+00    0.3     0.00037681      -146.4922803081 -1.70E-03
  Decoupling Energy:                                               0.0723311219
  Recoupling Energy:                                              -0.0186016346
     4 OT DIIS     0.15E+00    0.3     0.00013916      -146.4924802546 -2.00E-04
  Decoupling Energy:                                               0.0723461377
  Recoupling Energy:                                              -0.0186022886
     5 OT DIIS     0.15E+00    0.3     0.00005108      -146.4924955753 -1.53E-05
  Decoupling Energy:                                               0.0723413020
  Recoupling Energy:                                              -0.0186020528
     6 OT DIIS     0.15E+00    0.3     0.00001941      -146.4924979307 -2.36E-06
  Decoupling Energy:                                               0.0723421382
  Recoupling Energy:                                              -0.0186021340
     7 OT DIIS     0.15E+00    0.3     0.00000594      -146.4924982502 -3.19E-07
  Decoupling Energy:                                               0.0723424422
  Recoupling Energy:                                              -0.0186021302
     8 OT DIIS     0.15E+00    0.3     0.00000286      -146.4924982937 -4.35E-08
  Decoupling Energy:                                               0.0723422725
  Recoupling Energy:                                              -0.0186021330
     9 OT DIIS     0.15E+00    0.3     0.00000098      -146.4924983001 -6.41E-09

  *** SCF run converged in     9 steps ***


  Electronic density on regular grids:        -93.9999622185        0.0000377815
  Core density on regular grids:               94.9999999999       -0.0000000001
  Total charge density on r-space grids:        1.0000377814
  Total charge density g-space grids:           1.0000377814

  Overlap energy of the core charge distribution:               0.00003300554688
  Self energy of the core charge distribution:               -359.57183942644110
  Core Hamiltonian energy:                                    110.79920978136765
  Hartree energy:                                             145.51960219154932
  Exchange-correlation energy:                                -35.13733571634199
  Hartree-Fock Exchange energy:                                -7.84763450980397
  QM/MM Electrostatic energy:                                  -0.25453362599085

  Total energy:                                              -146.49249830011405

  outer SCF iter =    1 RMS gradient =   0.98E-06 energy =       -146.4924983001
  outer SCF loop converged in   1 iterations or    9 steps

  Decoupling Energy:                                               0.0723422902
  Recoupling Energy:                                              -0.0186021301

 ENERGY| Total FORCE_EVAL ( QMMM ) energy [a.u.]:           -154.709368851981225

 MD| ***************************************************************************
 MD| Step number                                                               1
 MD| Time [fs]                                                          1.000000
 MD| Conserved quantity [hartree]                            -0.123704339461E+03
 MD| ---------------------------------------------------------------------------
 MD|                                          Instantaneous             Averages
 MD| CPU time per MD step [s]                     19.158194            19.158194
 MD| Energy drift per atom [K]          -0.380927213092E+03   0.000000000000E+00
 MD| Potential energy [hartree]         -0.154709368852E+03  -0.154709368852E+03
 MD| Total kinetic energy [hartree]      0.310050293907E+02   0.310050293907E+02
 MD| QM kinetic energy [hartree]         0.223316761228E+00   0.223316761228E+00
 MD| Total temperature [K]                       908.429806           908.429806
 MD| QM temperature [K]                         1382.701405          1382.701405
 MD| ***************************************************************************

  Translating the system in order to center the QM fragment in the QM box.

 Number of electrons:                                                         94
 Number of occupied orbitals:                                                 47
 Number of molecular orbitals:                                                47

 Number of orbital functions:                                                332
 Number of independent orbital functions:                                    332

 Extrapolation method: ASPC


 SCF WAVEFUNCTION OPTIMIZATION

  ----------------------------------- OT ---------------------------------------
  Minimizer      : DIIS                : direct inversion
                                         in the iterative subspace
                                         using   7 DIIS vectors
                                         safer DIIS on
  Preconditioner : FULL_ALL            : diagonalization, state selective
  Precond_solver : DEFAULT
  stepsize       :    0.15000000                  energy_gap     :    0.08000000
  eps_taylor     :   0.10000E-15                  max_taylor     :             4
  ----------------------------------- OT ---------------------------------------

  Step     Update method      Time    Convergence         Total energy    Change
  ------------------------------------------------------------------------------
  Decoupling Energy:                                               0.0721845805
  Recoupling Energy:                                              -0.0185949986
     1 OT DIIS     0.15E+00    1.0     0.00185754      -146.0905910222 -1.46E+02
  Decoupling Energy:                                               0.0722248762
  Recoupling Energy:                                              -0.0185963784
     2 OT DIIS     0.15E+00    0.3     0.00072561      -146.0958910364 -5.30E-03
  Decoupling Energy:                                               0.0721948483
  Recoupling Energy:                                              -0.0185954492
     3 OT DIIS     0.15E+00    0.3     0.00026848      -146.0968324485 -9.41E-04
  Decoupling Energy:                                               0.0722087711
  Recoupling Energy:                                              -0.0185954270
     4 OT DIIS     0.15E+00    0.3     0.00012114      -146.0969213180 -8.89E-05
  Decoupling Energy:                                               0.0721999779
  Recoupling Energy:                                              -0.0185952976
     5 OT DIIS     0.15E+00    0.3     0.00003153      -146.0969321426 -1.08E-05
  Decoupling Energy:                                               0.0722023553
  Recoupling Energy:                                              -0.0185953916
     6 OT DIIS     0.15E+00    0.3     0.00001131      -146.0969332739 -1.13E-06
  Decoupling Energy:                                               0.0722014850
  Recoupling Energy:                                              -0.0185953177
     7 OT DIIS     0.15E+00    0.3     0.00000428      -146.0969333849 -1.11E-07
  Decoupling Energy:                                               0.0722015790
  Recoupling Energy:                                              -0.0185953399
     8 OT DIIS     0.15E+00    0.3     0.00000189      -146.0969334045 -1.97E-08
  Decoupling Energy:                                               0.0722015844
  Recoupling Energy:                                              -0.0185953334
     9 OT DIIS     0.15E+00    0.3     0.00000068      -146.0969334074 -2.81E-09

  *** SCF run converged in     9 steps ***


  Electronic density on regular grids:        -93.9999770548        0.0000229452
  Core density on regular grids:               94.9999999999       -0.0000000001
  Total charge density on r-space grids:        1.0000229452
  Total charge density g-space grids:           1.0000229452

  Overlap energy of the core charge distribution:               0.00018049500681
  Self energy of the core charge distribution:               -359.57183942644110
  Core Hamiltonian energy:                                    111.01601880034582
  Hartree energy:                                             145.42962172264669
  Exchange-correlation energy:                                -35.18729405316918
  Hartree-Fock Exchange energy:                                -7.85996492544064
  QM/MM Electrostatic energy:                                   0.07634397968848

  Total energy:                                              -146.09693340736311

  outer SCF iter =    1 RMS gradient =   0.68E-06 energy =       -146.0969334074
  outer SCF loop converged in   1 iterations or    9 steps

  Decoupling Energy:                                               0.0722015700
  Recoupling Energy:                                              -0.0185953346

 ENERGY| Total FORCE_EVAL ( QMMM ) energy [a.u.]:           -147.708765140717844

 MD| ***************************************************************************
 MD| Step number                                                               2
 MD| Time [fs]                                                          2.000000
 MD| Conserved quantity [hartree]                            -0.119951869921E+03
 MD| ---------------------------------------------------------------------------
 MD|                                          Instantaneous             Averages
 MD| CPU time per MD step [s]                      6.462860            12.810527
 MD| Energy drift per atom [K]          -0.216032313593E+03  -0.108016156796E+03
 MD| Potential energy [hartree]         -0.147708765141E+03  -0.151209066996E+03
 MD| Total kinetic energy [hartree]      0.277568952196E+02   0.293809623052E+02
 MD| QM kinetic energy [hartree]         0.278573658721E+00   0.250945209974E+00
 MD| Total temperature [K]                       813.261314           860.845560
 MD| QM temperature [K]                         1724.833314          1553.767359
 MD| ***************************************************************************

  Translating the system in order to center the QM fragment in the QM box.

 Number of electrons:                                                         94
 Number of occupied orbitals:                                                 47
 Number of molecular orbitals:                                                47

 Number of orbital functions:                                                332
 Number of independent orbital functions:                                    332

 Extrapolation method: ASPC


 SCF WAVEFUNCTION OPTIMIZATION

  ----------------------------------- OT ---------------------------------------
  Minimizer      : DIIS                : direct inversion
                                         in the iterative subspace
                                         using   7 DIIS vectors
                                         safer DIIS on
  Preconditioner : FULL_ALL            : diagonalization, state selective
  Precond_solver : DEFAULT
  stepsize       :    0.15000000                  energy_gap     :    0.08000000
  eps_taylor     :   0.10000E-15                  max_taylor     :             4
  ----------------------------------- OT ---------------------------------------

  Step     Update method      Time    Convergence         Total energy    Change
  ------------------------------------------------------------------------------
  Decoupling Energy:                                               0.0719990003
  Recoupling Energy:                                              -0.0185861514
     1 OT DIIS     0.15E+00    0.9     0.00309058      -145.7597803743 -1.46E+02
  Decoupling Energy:                                               0.0720990479
  Recoupling Energy:                                              -0.0185886003
     2 OT DIIS     0.15E+00    0.3     0.00113972      -145.7741549200 -1.44E-02
  Decoupling Energy:                                               0.0720521094
  Recoupling Energy:                                              -0.0185881522
     3 OT DIIS     0.15E+00    0.3     0.00045787      -145.7763467384 -2.19E-03
  Decoupling Energy:                                               0.0720925162
  Recoupling Energy:                                              -0.0185887739
     4 OT DIIS     0.15E+00    0.3     0.00020008      -145.7765718713 -2.25E-04
  Decoupling Energy:                                               0.0720721565
  Recoupling Energy:                                              -0.0185883123
     5 OT DIIS     0.15E+00    0.3     0.00005200      -145.7766028012 -3.09E-05
  Decoupling Energy:                                               0.0720752862
  Recoupling Energy:                                              -0.0185883800
     6 OT DIIS     0.15E+00    0.3     0.00001695      -145.7766057173 -2.92E-06
  Decoupling Energy:                                               0.0720746736
  Recoupling Energy:                                              -0.0185883162
     7 OT DIIS     0.15E+00    0.3     0.00000694      -145.7766059781 -2.61E-07
  Decoupling Energy:                                               0.0720750025
  Recoupling Energy:                                              -0.0185883505
     8 OT DIIS     0.15E+00    0.3     0.00000310      -145.7766060279 -4.98E-08
  Decoupling Energy:                                               0.0720749084
  Recoupling Energy:                                              -0.0185883346
     9 OT DIIS     0.15E+00    0.3     0.00000104      -145.7766060353 -7.44E-09
  Decoupling Energy:                                               0.0720749198
  Recoupling Energy:                                              -0.0185883388
    10 OT DIIS     0.15E+00    0.3     0.00000025      -145.7766060366 -1.28E-09

  *** SCF run converged in    10 steps ***


  Electronic density on regular grids:        -94.0000354779       -0.0000354779
  Core density on regular grids:               94.9999999999       -0.0000000001
  Total charge density on r-space grids:        0.9999645221
  Total charge density g-space grids:           0.9999645221

  Overlap energy of the core charge distribution:               0.00001384557135
  Self energy of the core charge distribution:               -359.57183942644110
  Core Hamiltonian energy:                                    110.91284377891714
  Hartree energy:                                             145.46169066123596
  Exchange-correlation energy:                                -35.16778134214209
  Hartree-Fock Exchange energy:                                -7.85422837204581
  QM/MM Electrostatic energy:                                   0.44269481827884

  Total energy:                                              -145.77660603662571

  outer SCF iter =    1 RMS gradient =   0.25E-06 energy =       -145.7766060366
  outer SCF loop converged in   1 iterations or   10 steps

  Decoupling Energy:                                               0.0720749113
  Recoupling Energy:                                              -0.0185883379

 ENERGY| Total FORCE_EVAL ( QMMM ) energy [a.u.]:           -142.851147096810877

 MD| ***************************************************************************
 MD| Step number                                                               3
 MD| Time [fs]                                                          3.000000
 MD| Conserved quantity [hartree]                            -0.117148586879E+03
 MD| ---------------------------------------------------------------------------
 MD|                                          Instantaneous             Averages
 MD| CPU time per MD step [s]                      6.720039            10.780364
 MD| Energy drift per atom [K]          -0.928475493896E+02  -0.102959954327E+03
 MD| Potential energy [hartree]         -0.142851147097E+03  -0.148423093697E+03
 MD| Total kinetic energy [hartree]      0.257025602177E+02   0.281548282760E+02
 MD| QM kinetic energy [hartree]         0.353215004752E+00   0.285035141567E+00
 MD| Total temperature [K]                       753.070462           824.920528
 MD| QM temperature [K]                         2186.987133          1764.840617
 MD| ***************************************************************************

  Translating the system in order to center the QM fragment in the QM box.

 Number of electrons:                                                         94
 Number of occupied orbitals:                                                 47
 Number of molecular orbitals:                                                47

 Number of orbital functions:                                                332
 Number of independent orbital functions:                                    332

 Extrapolation method: ASPC


 SCF WAVEFUNCTION OPTIMIZATION

  ----------------------------------- OT ---------------------------------------
  Minimizer      : DIIS                : direct inversion
                                         in the iterative subspace
                                         using   7 DIIS vectors
                                         safer DIIS on
  Preconditioner : FULL_ALL            : diagonalization, state selective
  Precond_solver : DEFAULT
  stepsize       :    0.15000000                  energy_gap     :    0.08000000
  eps_taylor     :   0.10000E-15                  max_taylor     :             4
  ----------------------------------- OT ---------------------------------------

  Step     Update method      Time    Convergence         Total energy    Change
  ------------------------------------------------------------------------------
  Decoupling Energy:                                               0.0719166413
  Recoupling Energy:                                              -0.0185801894
     1 OT DIIS     0.15E+00    0.9     0.00284770      -145.4489491156 -1.45E+02
  Decoupling Energy:                                               0.0719340631
  Recoupling Energy:                                              -0.0185827001
     2 OT DIIS     0.15E+00    0.3     0.00112002      -145.4617738198 -1.28E-02
  Decoupling Energy:                                               0.0719151793
  Recoupling Energy:                                              -0.0185801380
     3 OT DIIS     0.15E+00    0.3     0.00040365      -145.4640613609 -2.29E-03
  Decoupling Energy:                                               0.0719413872
  Recoupling Energy:                                              -0.0185828642
     4 OT DIIS     0.15E+00    0.3     0.00016977      -145.4641920954 -1.31E-04
  Decoupling Energy:                                               0.0719319244
  Recoupling Energy:                                              -0.0185819431
     5 OT DIIS     0.15E+00    0.3     0.00003892      -145.4642115084 -1.94E-05
  Decoupling Energy:                                               0.0719350165
  Recoupling Energy:                                              -0.0185821497
     6 OT DIIS     0.15E+00    0.3     0.00001344      -145.4642130643 -1.56E-06
  Decoupling Energy:                                               0.0719341022
  Recoupling Energy:                                              -0.0185821289
     7 OT DIIS     0.15E+00    0.3     0.00000553      -145.4642132399 -1.76E-07
  Decoupling Energy:                                               0.0719341363
  Recoupling Energy:                                              -0.0185821224
     8 OT DIIS     0.15E+00    0.3     0.00000195      -145.4642132759 -3.60E-08
  Decoupling Energy:                                               0.0719341224
  Recoupling Energy:                                              -0.0185821253
     9 OT DIIS     0.15E+00    0.3     0.00000075      -145.4642132793 -3.41E-09

  *** SCF run converged in     9 steps ***


  Electronic density on regular grids:        -94.0000858418       -0.0000858418
  Core density on regular grids:               94.9999999999       -0.0000000001
  Total charge density on r-space grids:        0.9999141581
  Total charge density g-space grids:           0.9999141581

  Overlap energy of the core charge distribution:               0.00001232669346
  Self energy of the core charge distribution:               -359.57183942644110
  Core Hamiltonian energy:                                    110.82278724413622
  Hartree energy:                                             145.53164086032487
  Exchange-correlation energy:                                -35.13951192876203
  Hartree-Fock Exchange energy:                                -7.84527468342680
  QM/MM Electrostatic energy:                                   0.73797232812631

  Total energy:                                              -145.46421327934902

  outer SCF iter =    1 RMS gradient =   0.75E-06 energy =       -145.4642132793
  outer SCF loop converged in   1 iterations or    9 steps

  Decoupling Energy:                                               0.0719341629
  Recoupling Energy:                                              -0.0185821255

 ENERGY| Total FORCE_EVAL ( QMMM ) energy [a.u.]:           -170.764649439946851

 MD| ***************************************************************************
 MD| Step number                                                               4
 MD| Time [fs]                                                          4.000000
 MD| Conserved quantity [hartree]                            -0.125036075160E+03
 MD| ---------------------------------------------------------------------------
 MD|                                          Instantaneous             Averages
 MD| CPU time per MD step [s]                      6.274730             9.653956
 MD| Energy drift per atom [K]          -0.439447721196E+03  -0.187081896045E+03
 MD| Potential energy [hartree]         -0.170764649440E+03  -0.154008482632E+03
 MD| Total kinetic energy [hartree]      0.457285742804E+02   0.325482647771E+02
 MD| QM kinetic energy [hartree]         0.371930167504E+00   0.306758898051E+00
 MD| Total temperature [K]                      1339.821335           953.645730
 MD| QM temperature [K]                         2302.865053          1899.346726
 MD| ***************************************************************************

  Translating the system in order to center the QM fragment in the QM box.

 Number of electrons:                                                         94
 Number of occupied orbitals:                                                 47
 Number of molecular orbitals:                                                47

 Number of orbital functions:                                                332
 Number of independent orbital functions:                                    332

 Extrapolation method: ASPC


 SCF WAVEFUNCTION OPTIMIZATION

  ----------------------------------- OT ---------------------------------------
  Minimizer      : DIIS                : direct inversion
                                         in the iterative subspace
                                         using   7 DIIS vectors
                                         safer DIIS on
  Preconditioner : FULL_ALL            : diagonalization, state selective
  Precond_solver : DEFAULT
  stepsize       :    0.15000000                  energy_gap     :    0.08000000
  eps_taylor     :   0.10000E-15                  max_taylor     :             4
  ----------------------------------- OT ---------------------------------------

  Step     Update method      Time    Convergence         Total energy    Change
  ------------------------------------------------------------------------------
  Decoupling Energy:                                               0.0718870265
  Recoupling Energy:                                              -0.0185807996
     1 OT DIIS     0.15E+00    0.9     0.00179349      -145.1185907197 -1.45E+02
  Decoupling Energy:                                               0.0717674074
  Recoupling Energy:                                              -0.0185750160
     2 OT DIIS     0.15E+00    0.3     0.00078138      -145.1236565589 -5.07E-03
  Decoupling Energy:                                               0.0718658414
  Recoupling Energy:                                              -0.0185809395
     3 OT DIIS     0.15E+00    0.3     0.00057015      -145.1245121690 -8.56E-04
  Decoupling Energy:                                               0.0718048040
  Recoupling Energy:                                              -0.0185774546
     4 OT DIIS     0.15E+00    0.3     0.00008183      -145.1247324270 -2.20E-04
  Decoupling Energy:                                               0.0718043955
  Recoupling Energy:                                              -0.0185776284
     5 OT DIIS     0.15E+00    0.3     0.00002399      -145.1247378011 -5.37E-06
  Decoupling Energy:                                               0.0718053280
  Recoupling Energy:                                              -0.0185776126
     6 OT DIIS     0.15E+00    0.3     0.00001002      -145.1247383835 -5.82E-07
  Decoupling Energy:                                               0.0718050872
  Recoupling Energy:                                              -0.0185776234
     7 OT DIIS     0.15E+00    0.3     0.00000264      -145.1247384903 -1.07E-07
  Decoupling Energy:                                               0.0718052989
  Recoupling Energy:                                              -0.0185776333
     8 OT DIIS     0.15E+00    0.3     0.00000094      -145.1247385002 -9.92E-09

  *** SCF run converged in     8 steps ***


  Electronic density on regular grids:        -94.0000966016       -0.0000966016
  Core density on regular grids:               94.9999999999       -0.0000000001
  Total charge density on r-space grids:        0.9999033983
  Total charge density g-space grids:           0.9999033983

  Overlap energy of the core charge distribution:               0.00001161052047
  Self energy of the core charge distribution:               -359.57183942644110
  Core Hamiltonian energy:                                    110.74787849901753
  Hartree energy:                                             145.60458752996988
  Exchange-correlation energy:                                -35.10787125575006
  Hartree-Fock Exchange energy:                                -7.83480497595968
  QM/MM Electrostatic energy:                                   1.03729951847292

  Total energy:                                              -145.12473850017005

  outer SCF iter =    1 RMS gradient =   0.94E-06 energy =       -145.1247385002
  outer SCF loop converged in   1 iterations or    8 steps

  Decoupling Energy:                                               0.0718052208
  Recoupling Energy:                                              -0.0185776277

 ENERGY| Total FORCE_EVAL ( QMMM ) energy [a.u.]:           -144.454219266223220

 MD| ***************************************************************************
 MD| Step number                                                               5
 MD| Time [fs]                                                          5.000000
 MD| Conserved quantity [hartree]                            -0.116721871234E+03
 MD| ---------------------------------------------------------------------------
 MD|                                          Instantaneous             Averages
 MD| CPU time per MD step [s]                      6.074784             8.938122
 MD| Energy drift per atom [K]          -0.740963689540E+02  -0.164484790626E+03
 MD| Potential energy [hartree]         -0.144454219266E+03  -0.152097629959E+03
 MD| Total kinetic energy [hartree]      0.277323480323E+02   0.315850814281E+02
 MD| QM kinetic energy [hartree]         0.358147900285E+00   0.317036698498E+00
 MD| Total temperature [K]                       812.542096           925.425003
 MD| QM temperature [K]                         2217.529943          1962.983369
 MD| ***************************************************************************

  Translating the system in order to center the QM fragment in the QM box.

 Number of electrons:                                                         94
 Number of occupied orbitals:                                                 47
 Number of molecular orbitals:                                                47

 Number of orbital functions:                                                332
 Number of independent orbital functions:                                    332

 Extrapolation method: ASPC


 SCF WAVEFUNCTION OPTIMIZATION

  ----------------------------------- OT ---------------------------------------
  Minimizer      : DIIS                : direct inversion
                                         in the iterative subspace
                                         using   7 DIIS vectors
                                         safer DIIS on
  Preconditioner : FULL_ALL            : diagonalization, state selective
  Precond_solver : DEFAULT
  stepsize       :    0.15000000                  energy_gap     :    0.08000000
  eps_taylor     :   0.10000E-15                  max_taylor     :             4
  ----------------------------------- OT ---------------------------------------

  Step     Update method      Time    Convergence         Total energy    Change
  ------------------------------------------------------------------------------
  Decoupling Energy:                                               0.0717300178
  Recoupling Energy:                                              -0.0185771806
     1 OT DIIS     0.15E+00    0.9     0.00078842      -144.6500556642 -1.45E+02
  Decoupling Energy:                                               0.0717097669
  Recoupling Energy:                                              -0.0185762903
     2 OT DIIS     0.15E+00    0.3     0.00032314      -144.6510406681 -9.85E-04
  Decoupling Energy:                                               0.0717351258
  Recoupling Energy:                                              -0.0185773288
     3 OT DIIS     0.15E+00    0.3     0.00015824      -144.6512146799 -1.74E-04
  Decoupling Energy:                                               0.0717156374
  Recoupling Energy:                                              -0.0185764155
     4 OT DIIS     0.15E+00    0.3     0.00003608      -144.6512334260 -1.87E-05
  Decoupling Energy:                                               0.0717192617
  Recoupling Energy:                                              -0.0185766098
     5 OT DIIS     0.15E+00    0.3     0.00001012      -144.6512343055 -8.79E-07
  Decoupling Energy:                                               0.0717191032
  Recoupling Energy:                                              -0.0185765812
     6 OT DIIS     0.15E+00    0.3     0.00000513      -144.6512344048 -9.93E-08
  Decoupling Energy:                                               0.0717193043
  Recoupling Energy:                                              -0.0185765997
     7 OT DIIS     0.15E+00    0.3     0.00000151      -144.6512344264 -2.16E-08
  Decoupling Energy:                                               0.0717192252
  Recoupling Energy:                                              -0.0185765950
     8 OT DIIS     0.15E+00    0.3     0.00000058      -144.6512344292 -2.81E-09

  *** SCF run converged in     8 steps ***


  Electronic density on regular grids:        -94.0000163350       -0.0000163350
  Core density on regular grids:               94.9999999999       -0.0000000001
  Total charge density on r-space grids:        0.9999836650
  Total charge density g-space grids:           0.9999836650

  Overlap energy of the core charge distribution:               0.00000897345999
  Self energy of the core charge distribution:               -359.57183942644110
  Core Hamiltonian energy:                                    110.64999203479869
  Hartree energy:                                             145.68987766147828
  Exchange-correlation energy:                                -35.06959513244055
  Hartree-Fock Exchange energy:                                -7.82273831110857
  QM/MM Electrostatic energy:                                   1.47305977102196

  Total energy:                                              -144.65123442923129

  outer SCF iter =    1 RMS gradient =   0.58E-06 energy =       -144.6512344292
  outer SCF loop converged in   1 iterations or    8 steps

  Decoupling Energy:                                               0.0717192595
  Recoupling Energy:                                              -0.0185765966

 ENERGY| Total FORCE_EVAL ( QMMM ) energy [a.u.]:           -156.216096365718755

 MD| ***************************************************************************
 MD| Step number                                                               6
 MD| Time [fs]                                                          6.000000
 MD| Conserved quantity [hartree]                            -0.120484908245E+03
 MD| ---------------------------------------------------------------------------
 MD|                                          Instantaneous             Averages
 MD| CPU time per MD step [s]                      5.988771             8.446563
 MD| Energy drift per atom [K]          -0.239455635211E+03  -0.176979931391E+03
 MD| Potential energy [hartree]         -0.156216096366E+03  -0.152784041027E+03
 MD| Total kinetic energy [hartree]      0.357311881204E+02   0.322760992102E+02
 MD| QM kinetic energy [hartree]         0.334267545155E+00   0.319908506274E+00
 MD| Total temperature [K]                      1046.903581           945.671433
 MD| QM temperature [K]                         2069.670909          1980.764626
 MD| ***************************************************************************

 -------------------------------------------------------------------------------
 -                                                                             -
 -                                DBCSR STATISTICS                             -
 -                                                                             -
 -------------------------------------------------------------------------------
 COUNTER                                    TOTAL       BLAS       SMM       ACC
 flops    15 x    15 x    15              3341250       0.0%      0.0%    100.0%
 flops     5 x     5 x    15              6936000       0.0%      0.0%    100.0%
 flops    15 x    15 x    32              7128000       0.0%      0.0%    100.0%
 flops    15 x    32 x    15              7128000       0.0%      0.0%    100.0%
 flops    32 x    15 x    15              7128000       0.0%      0.0%    100.0%
 flops    15 x    15 x     5              8028000       0.0%      0.0%    100.0%
 flops     5 x    15 x    15              9972000       0.0%      0.0%    100.0%
 flops     5 x     5 x    32             14796800       0.0%      0.0%    100.0%
 flops    32 x    32 x    15             15206400       0.0%      0.0%    100.0%
 flops    15 x    32 x    32             15206400       0.0%      0.0%    100.0%
 flops    32 x    15 x    32             15206400       0.0%      0.0%    100.0%
 flops    15 x    32 x     5             17126400       0.0%      0.0%    100.0%
 flops    32 x    15 x     5             17126400       0.0%      0.0%    100.0%
 flops     5 x    14 x    15             20563200       0.0%      0.0%    100.0%
 flops    14 x     5 x    15             20563200       0.0%      0.0%    100.0%
 flops     5 x    32 x    15             20736000       0.0%      0.0%    100.0%
 flops     5 x    15 x    32             20736000       0.0%      0.0%    100.0%
 flops    15 x    15 x    14             25288200       0.0%      0.0%    100.0%
 flops    14 x    15 x    15             31411800       0.0%      0.0%    100.0%
 flops    32 x    32 x    32             32440320       0.0%      0.0%    100.0%
 flops    32 x    32 x     5             36536320       0.0%      0.0%    100.0%
 flops     5 x    14 x    32             43868160       0.0%      0.0%    100.0%
 flops    14 x     5 x    32             43868160       0.0%      0.0%    100.0%
 flops     5 x    32 x    32             45383680       0.0%      0.0%    100.0%
 flops    15 x    32 x    14             53948160       0.0%      0.0%    100.0%
 flops    32 x    15 x    14             53948160       0.0%      0.0%    100.0%
 flops     5 x    15 x     5             56256000       0.0%      0.0%    100.0%
 flops    14 x    32 x    15             65318400       0.0%      0.0%    100.0%
 flops    14 x    15 x    32             65318400       0.0%      0.0%    100.0%
 flops    14 x    14 x    15             68372640       0.0%      0.0%    100.0%
 flops    32 x    32 x    14            115089408       0.0%      0.0%    100.0%
 flops     5 x    32 x     5            120012800       0.0%      0.0%    100.0%
 flops    14 x    32 x    32            142958592       0.0%      0.0%    100.0%
 flops    14 x    14 x    32            145861632       0.0%      0.0%    100.0%
 flops     5 x    15 x    14            177206400       0.0%      0.0%    100.0%
 flops    14 x    15 x     5            177206400       0.0%      0.0%    100.0%
 flops    14 x    32 x     5            378040320       0.0%      0.0%    100.0%
 flops     5 x    32 x    14            378040320       0.0%      0.0%    100.0%
 flops    14 x    15 x    14            558200160       0.0%      0.0%    100.0%
 flops    14 x    32 x    14           1190827008       0.0%      0.0%    100.0%
 flops inhomo. stacks                           0       0.0%      0.0%      0.0%
 flops total                         4.232330E+09       0.0%      0.0%    100.0%
 flops max/rank                    812.218736E+06       0.0%      0.0%    100.0%
 matmuls inhomo. stacks                         0       0.0%      0.0%      0.0%
 matmuls total                             829820       0.0%      0.0%    100.0%
 number of processed stacks                393258       0.0%      0.0%    100.0%
 average stack size                                     0.0       0.0       2.1
 marketing flops                     4.586802E+09
 -------------------------------------------------------------------------------
 # multiplications                           1363
 max memory usage/rank               2.344309E+09
 # max total images/rank                        2
 # max 3D layers                                1
 # MPI messages exchanged                  567008
 MPI messages size (bytes):
  total size                         2.625594E+09
  min size                           0.000000E+00
  max size                          32.336000E+03
  average size                       4.630611E+03
 MPI breakdown and total messages size (bytes):
             size <=      128              405966                        0
       128 < size <=     8192               49586                233990472
      8192 < size <=    32768              111456               2391603168
     32768 < size <=   131072                   0                        0
    131072 < size <=  4194304                   0                        0
   4194304 < size <= 16777216                   0                        0
  16777216 < size                               0                        0
 -------------------------------------------------------------------------------

 *** WARNING in dbcsr_mm.F:294 :: Using a non-square number of MPI ranks ***
 *** might lead to poor performance. Used ranks: 32 Suggested: 36 64     ***

 -------------------------------------------------------------------------------
 -                                                                             -
 -                      DBCSR MESSAGE PASSING PERFORMANCE                      -
 -                                                                             -
 -------------------------------------------------------------------------------
 ROUTINE             CALLS      AVE VOLUME [Bytes]
 MP_Bcast               41                     12.
 MP_Allreduce         4833                      8.
 MP_Alltoall          5470                   5003.
 MP_ISend            42030                   3474.
 MP_IRecv            41584                   2946.
 -------------------------------------------------------------------------------

 -------------------------------------------------------------------------------
 -                                                                             -
 -                                GRID STATISTICS                              -
 -                                                                             -
 -------------------------------------------------------------------------------
 LP    KERNEL             BACKEND                              COUNT     PERCENT
 1     collocate ortho    GPU                                 407083      21.28%
 1     integrate ortho    GPU                                 385293      20.14%
 2     integrate ortho    GPU                                 267504      13.99%
 2     collocate ortho    GPU                                 249413      13.04%
 0     collocate ortho    GPU                                 217145      11.35%
 0     integrate ortho    GPU                                 192223      10.05%
 3     integrate ortho    GPU                                  88037       4.60%
 3     collocate ortho    GPU                                  67116       3.51%
 4     integrate ortho    GPU                                  14720       0.77%
 4     collocate ortho    GPU                                   7930       0.41%
 0     collocate general  REF                                   7616       0.40%
 1     integrate general  REF                                   7616       0.40%
 5     integrate ortho    GPU                                    910       0.05%
 -------------------------------------------------------------------------------

 MEMORY| Estimated peak process memory [MiB]                                2236

 -------------------------------------------------------------------------------
 -                                                                             -
 -                         MESSAGE PASSING PERFORMANCE                         -
 -                                                                             -
 -------------------------------------------------------------------------------

 ROUTINE             CALLS      AVE VOLUME [Bytes]
 MP_Group                8
 MP_Bcast              735                4334244.
 MP_Allreduce         2424                 304161.
 MP_Sync               427
 MP_Alltoall          1292                6523153.
 MP_ISendRecv        16213                  57176.
 MP_Wait             19396
 MP_comm_split          21
 MP_ISend             2527                 538836.
 MP_IRecv             2520                 539499.
 MP_Recv                49                  15936.
 -------------------------------------------------------------------------------


 -------------------------------------------------------------------------------
 -                                                                             -
 -                           R E F E R E N C E S                               -
 -                                                                             -
 -------------------------------------------------------------------------------
 
 CP2K version 8.2, the CP2K developers group (2021).
 CP2K is freely available from https://www.cp2k.org/ .

 Kuehne,Thomas D.; Iannuzzi,Marcella; Del Ben,Mauro;
 Rybkin,Vladimir V.; Seewald,Patrick; Stein,Frederick; Laino,Teodoro;
 Khaliullin,Rustam Z.; Schuett,Ole; Schiffmann,Florian; Golze,Dorothea;
 Wilhelm,Jan; Chulkov,Sergey; Bani-Hashemian,Mohammad Hossein;
 Weber,Valery; Borstnik,Urban; Taillefumier,Mathieu;
 Jakobovits,Alice Shoshana; Lazzaro,Alfio; Pabst,Hans; Mueller,Tiziano;
 Schade,Robert; Guidon,Manuel; Andermatt,Samuel; Holmberg,Nico;
 Schenter,Gregory K.; Hehn,Anna; Bussy,Augustin; Belleflamme,Fabian;
 Tabacchi,Gloria; Gloess,Andreas; Lass,Michael; Bethune,Iain;
 Mundy,Christopher J.; Plessl,Christian; Watkins,Matt;
 VandeVondele,Joost; Krack,Matthias; Hutter,Juerg. 
 The Journal of Chemical Physics, 152 (19), (2020). 
 CP2K: An electronic structure and molecular dynamics software package -
 Quickstep: Efficient and accurate electronic structure calculations.
 https://doi.org/10.1063/5.0007045

 Schuett, Ole; Messmer, Peter; Hutter, Juerg; VandeVondele, Joost. 
 Electronic Structure Calculations on Graphics Processing Units, John
 Wiley & Sons, Ltd, 173-190 (2016). 
 GPU-Accelerated Sparse Matrix-Matrix Multiplication for
 Linear Scaling Density Functional Theory.
 https://doi.org/10.1002/9781118670712.ch8

 Heinecke, A; Henry, G; Hutchinson, M; Pabst, H. 
 Proceedings of Intl. Supercomputing Conference, 981-991 (2016). 
 LIBXSMM: Accelerating Small Matrix Multiplications
 by Runtime Code Generation.
 https://doi.org/10.1109/SC.2016.83

 Borstnik, U; VandeVondele, J; Weber, V; Hutter, J. 
 PARALLEL COMPUTING, 40 (5-6), 47-58 (2014). 
 Sparse matrix multiplication: The distributed block-compressed sparse
 row library.
 https://doi.org/10.1016/j.parco.2014.03.012

 Hutter, J; Iannuzzi, M; Schiffmann, F; VandeVondele, J. 
 WIREs Comput Mol Sci., 4 (1), 15-25 (2014). 
 CP2K: atomistic simulations of condensed matter systems.
 https://doi.org/10.1002/wcms.1159

 Marek, A; Blum, V; Johanni, R; Havu, V; Lang, B; Auckenthaler, T;
 Heinecke, A; Bungartz, H; Lederer, H. 
 Journal of Physics: Condensed Matter, 26 (21), (2014). 
 The ELPA library: scalable parallel eigenvalue solutions for
 electronic structure
 theory and computational science.
 https://doi.org/10.1088/0953-8984/26/21/213201

 Guidon, M; Hutter, J; VandeVondele, J. 
 JOURNAL OF CHEMICAL THEORY AND COMPUTATION, 5 (11), 3010-3021 (2009). 
 Robust Periodic Hartree-Fock Exchange for Large-Scale Simulations Using
 Gaussian Basis Sets.
 https://doi.org/10.1021/ct900494g

 Guidon, M; Schiffmann, F; Hutter, J; VandeVondele, J. 
 JOURNAL OF CHEMICAL PHYSICS, 128 (21), 214104 (2008). 
 Ab initio molecular dynamics using hybrid density functionals.
 https://doi.org/10.1063/1.2931945

 Kuhne, TD; Krack, M; Mohamed, FR; Parrinello, M. 
 PHYSICAL REVIEW LETTERS, 98 (6), 066401 (2007). 
 Efficient and accurate Car-Parrinello-like approach to
 Born-Oppenheimer molecular dynamics.
 https://doi.org/10.1103/PhysRevLett.98.066401

 Laino, T; Mohamed, F; Laio, A; Parrinello, M. 
 JOURNAL OF CHEMICAL THEORY AND COMPUTATION, 2 (5), 1370-1378 (2006). 
 An efficient linear-scaling electrostatic coupling for treating
 periodic boundary conditions in QM/MM simulations.
 https://doi.org/10.1021/ct6001169

 Laino, T; Mohamed, F; Laio, A; Parrinello, M. 
 JOURNAL OF CHEMICAL THEORY AND COMPUTATION, 1 (6), 1176-1184 (2005). 
 An efficient real space multigrid QM/MM electrostatic coupling.
 https://doi.org/10.1021/ct050123f

 Krack, M. 
 THEORETICAL CHEMISTRY ACCOUNTS, 114 (1-3), 145-152 (2005). 
 Pseudopotentials for H to Kr optimized for gradient-corrected
 exchange-correlation functionals.
 https://doi.org/10.1007/s00214-005-0655-y

 VandeVondele, J; Krack, M; Mohamed, F; Parrinello, M; Chassaing, T;
 Hutter, J. COMPUTER PHYSICS COMMUNICATIONS, 167 (2), 103-128 (2005). 
 QUICKSTEP: Fast and accurate density functional calculations using a
 mixed Gaussian and plane waves approach.
 https://doi.org/10.1016/j.cpc.2004.12.014

 Frigo, M; Johnson, SG. 
 PROCEEDINGS OF THE IEEE, 93 (2), 216-231 (2005). 
 The design and implementation of FFTW3.
 https://doi.org/10.1109/JPROC.2004.840301

 Kolafa, J. 
 JOURNAL OF COMPUTATIONAL CHEMISTRY, 25 (3), 335-342 (2004). 
 Time-reversible always stable predictor-corrector method for molecular dynamics of polarizable molecules.
 https://doi.org/10.1002/jcc.10385

 VandeVondele, J; Hutter, J. 
 JOURNAL OF CHEMICAL PHYSICS, 118 (10), 4365-4369 (2003). 
 An efficient orbital transformation method for electronic structure
 calculations.
 https://doi.org/10.1063/1.1543154

 Hartwigsen, C; Goedecker, S; Hutter, J. 
 PHYSICAL REVIEW B, 58 (7), 3641-3662 (1998). 
 Relativistic separable dual-space Gaussian pseudopotentials from H to Rn.
 https://doi.org/10.1103/PhysRevB.58.3641

 Lippert, G; Hutter, J; Parrinello, M. 
 MOLECULAR PHYSICS, 92 (3), 477-487 (1997). 
 A hybrid Gaussian and plane wave density functional scheme.
 https://doi.org/10.1080/002689797170220

 Goedecker, S; Teter, M; Hutter, J. 
 PHYSICAL REVIEW B, 54 (3), 1703-1710 (1996). 
 Separable dual-space Gaussian pseudopotentials.
 https://doi.org/10.1103/PhysRevB.54.1703

 ESSMANN, U; PERERA, L; BERKOWITZ, ML; DARDEN, T; LEE, H; PEDERSEN, LG. 
 JOURNAL OF CHEMICAL PHYSICS, 103 (19), 8577-8593 (1995). 
 A SMOOTH PARTICLE MESH EWALD METHOD.
 https://doi.org/10.1063/1.470117

 BLOCHL, PE. 
 JOURNAL OF CHEMICAL PHYSICS, 103 (17), 7422-7428 (1995). 
 ELECTROSTATIC DECOUPLING OF PERIODIC IMAGES OF PLANE-WAVE-EXPANDED
 DENSITIES AND DERIVED ATOMIC POINT CHARGES.
 https://doi.org/10.1063/1.470314

 BECKE, AD. PHYSICAL REVIEW A, 38 (6), 3098-3100 (1988). 
 DENSITY-FUNCTIONAL EXCHANGE-ENERGY APPROXIMATION WITH CORRECT
 ASYMPTOTIC-BEHAVIOR.
 https://doi.org/10.1103/PhysRevA.38.3098

 LEE, CT; YANG, WT; PARR, RG. 
 PHYSICAL REVIEW B, 37 (2), 785-789 (1988). 
 DEVELOPMENT OF THE COLLE-SALVETTI CORRELATION-ENERGY FORMULA INTO A
 FUNCTIONAL OF THE ELECTRON-DENSITY.
 https://doi.org/10.1103/PhysRevB.37.785

 VOSKO, SH; WILK, L; NUSAIR, M. 
 CANADIAN JOURNAL OF PHYSICS, 58 (8), 1200-1211 (1980). 
 ACCURATE SPIN-DEPENDENT ELECTRON LIQUID CORRELATION ENERGIES FOR LOCAL
 SPIN-DENSITY CALCULATIONS - A CRITICAL ANALYSIS.
 https://doi.org/10.1139/p80-159


 -------------------------------------------------------------------------------
 -                                                                             -
 -                                T I M I N G                                  -
 -                                                                             -
 -------------------------------------------------------------------------------
 SUBROUTINE                       CALLS  ASD         SELF TIME        TOTAL TIME
                                MAXIMUM       AVERAGE  MAXIMUM  AVERAGE  MAXIMUM
 CP2K                                 1  1.0    0.052    0.085   51.816   51.817
 qs_mol_dyn_low                       1  2.0    0.003    0.003   50.722   50.830
 velocity_verlet                      6  3.0    0.001    0.002   38.426   38.430
 qs_forces                            7  3.9    0.001    0.001   34.611   34.612
 qs_energies                          7  4.9    0.000    0.001   27.577   27.583
 scf_env_do_scf                       7  5.9    0.000    0.001   24.258   24.258
 rebuild_ks_matrix                   61  8.6    0.000    0.000   23.087   23.221
 qs_ks_build_kohn_sham_matrix        61  9.6    0.006    0.007   23.087   23.221
 qs_ks_update_qs_env                 61  8.0    0.000    0.000   16.102   16.221
 hfx_ks_matrix                       61 10.6    0.001    0.002   15.737   15.757
 scf_env_do_scf_inner_loop           54  7.0    0.001    0.003   14.680   14.688
 integrate_four_center               61 11.6    2.136    2.681   10.055   10.074
 init_scf_loop                        7  6.9    0.000    0.000    9.567    9.567
 dbcsr_multiply_generic            1363 13.0    0.044    0.050    7.896    8.307
 qmmm_el_coupling                     7  3.9    0.000    0.000    7.976    8.084
 qmmm_elec_with_gaussian              7  4.9    0.007    0.009    7.975    8.083
 qs_ks_update_qs_env_forces           7  4.9    0.000    0.000    6.989    7.005
 multiply_cannon                   1363 14.0    0.174    0.215    5.669    6.966
 qmmm_forces                          7  3.9    0.001    0.002    6.412    6.412
 pw_transfer                       1297 12.1    0.042    0.045    6.157    6.237
 qmmm_forces_with_gaussian            7  4.9    0.008    0.010    6.016    6.223
 multiply_cannon_loop              1363 15.0    0.271    0.300    4.820    6.181
 fft_wrap_pw1pw2                   1079 13.3    0.007    0.007    6.092    6.170
 derivatives_four_center              7  8.9    0.020    0.309    5.672    5.674
 fft_wrap_pw1pw2_200                685 14.5    0.002    0.002    5.522    5.618
 pw_integral_ab                    2925  7.5    5.364    5.483    5.473    5.597
 derivatives_four_center_main         7  9.9    0.028    0.136    5.308    5.310
 derivatives_four_center_bin        796 10.8    4.799    4.981    4.799    4.981
 integrate_four_center_main          61 12.6    0.030    0.048    4.722    4.965
 integrate_four_center_bin         3785 13.6    4.692    4.941    4.692    4.941
 multiply_cannon_multrec          10904 16.0    1.742    4.369    2.116    4.462
 qs_scf_new_mos                      54  8.0    0.000    0.000    4.230    4.314
 qs_scf_loop_do_ot                   54  9.0    0.000    0.000    4.229    4.313
 pw_restrict_s3                      21  5.9    0.505    0.567    4.146    4.256
 ot_scf_mini                         54 10.0    0.001    0.001    4.037    4.112
 mp_waitall_1                    104101 16.7    2.383    4.005    2.383    4.005
 qs_vxc_create                       61 10.6    0.001    0.001    3.909    3.914
 xc_vxc_pw_create                    61 11.6    0.080    0.082    3.908    3.913
 qmmm_elec_with_gaussian_low          7  5.9    0.000    0.000    3.773    3.904
 qmmm_elec_gaussian_low_G             7  6.9    3.593    3.720    3.593    3.720
 qs_rho_update_rho                   61  8.1    0.000    0.000    2.631    3.445
 calculate_rho_elec                  61  9.1    0.058    0.059    2.631    3.445
 qmmm_elec_with_gaussian:spline       7  5.9    0.000    0.000    3.323    3.429
 pw_prolongate_s3                    21  6.9    0.411    0.471    3.323    3.429
 multiply_cannon_metrocomm3       10904 16.0    0.019    0.020    1.672    3.322
 pw_cuda_c1dr3d_3d_ps               577 15.6    0.007    0.007    3.099    3.166
 ot_mini                             54 11.0    0.000    0.000    3.073    3.163
 pw_cuda_r3dc1d_3d_ps               502 14.8    0.006    0.006    2.983    3.107
 density_rs2pw                       61 10.1    0.002    0.002    2.291    3.101
 init_scf_run                         7  5.9    0.000    0.000    3.015    3.015
 scf_env_initial_rho_setup            7  6.9    0.000    0.000    3.014    3.015
 rs_pw_transfer                     530 11.9    0.005    0.005    2.178    3.012
 mp_sum_l                          4365 13.3    1.765    2.901    1.765    2.901
 dbcsr_mm_accdrv_process           5507 16.4    0.294    2.795    0.311    2.812
 calculate_first_density_matrix       1  7.0    0.000    0.000    2.407    2.528
 qs_ot_get_derivative                54 12.0    0.000    0.000    2.297    2.372
 mp_sync                            427 13.1    1.066    2.066    1.066    2.066
 sum_up_and_integrate                61 10.6    0.023    0.026    1.941    1.956
 integrate_v_rspace                  61 11.6    0.001    0.002    1.918    1.934
 calculate_dm_sparse                 61  9.9    0.000    0.000    1.784    1.923
 mp_alltoall_z22v                  1079 17.3    1.493    1.901    1.493    1.901
 xc_rho_set_and_dset_create          61 12.6    0.080    0.086    1.822    1.883
 cp_dbcsr_plus_fm_fm_t_native        14  8.9    0.000    0.000    1.621    1.746
 potential_pw2rs                     61 12.6    0.005    0.005    1.665    1.683
 mp_sum_dm3                          38  5.7    1.536    1.652    1.536    1.652
 prepare_preconditioner               7  7.9    0.000    0.000    1.592    1.605
 mp_waitany                        2520 12.5    0.666    1.499    0.666    1.499
 rs_pw_transfer_RS2PW_200            68 11.8    0.145    0.173    0.599    1.422
 qs_ot_get_derivative_taylor         54 13.0    0.002    0.002    1.320    1.395
 fist_calc_energy_force               7  3.9    0.002    0.003    1.046    1.365
 qmmm_force_with_gaussian_low         7  5.9    0.000    0.000    1.248    1.353
 powell_optimize                 537390 13.0    1.046    1.341    1.046    1.341
 subspace_eigenvalues_ks_dbcsr       14  9.4    0.000    0.000    1.289    1.300
 pw_cuda_sf                         577 16.6    1.194    1.279    1.194    1.279
 pw_cuda_cff                        502 15.8    1.106    1.157    1.106    1.157
 qmmm_forces_gaussian_low_G           7  6.9    1.059    1.155    1.059    1.155
 pw_cuda_fg                         502 15.8    0.984    1.122    0.984    1.122
 cp_dbcsr_sm_fm_multiply             35 10.1    0.001    0.001    1.071    1.071
 yz_to_x                            502 15.8    0.135    0.158    0.875    1.054
 x_to_yz                            577 16.6    0.189    0.206    0.942    1.050
 -------------------------------------------------------------------------------

 The number of warnings for this run is : 1
 
 -------------------------------------------------------------------------------
  **** **** ******  **  PROGRAM ENDED AT                 2021-07-26 16:35:34.694
 ***** ** ***  *** **   PROGRAM RAN ON                                    r2i4n0
 **    ****   ******    PROGRAM RAN BY                                    hollyj
 ***** **    ** ** **   PROGRAM PROCESS ID                                 69289
  **** **  *******  **  PROGRAM STOPPED IN /lustre/home/w68/hollyj/CP2K/Cirrus/G
                                           PU/cp2kMD/MQAE-B3LYP/6STEPS/8NODES/36
                                           CPN/10THREADS
