 DBCSR| CPU Multiplication driver                                           XSMM
 DBCSR| Multrec recursion limit                                              512
 DBCSR| Multiplication stack size                                          30000
 DBCSR| Maximum elements for images                                    UNLIMITED
 DBCSR| Multiplicative factor virtual images                                   1
 DBCSR| Use multiplication densification                                       F
 DBCSR| Multiplication size stacks                                             3
 DBCSR| Use memory pool for CPU allocation                                     F
 DBCSR| Number of 3D layers                                               SINGLE
 DBCSR| Use MPI memory allocation                                              F
 DBCSR| Use RMA algorithm                                                      F
 DBCSR| Use Communication thread                                               T
 DBCSR| Communication thread load                                             53
 DBCSR| MPI: My node id                                                        0
 DBCSR| MPI: Number of nodes                                                  16
 DBCSR| OMP: Current number of threads                                        10
 DBCSR| OMP: Max number of threads                                            10
 DBCSR| ACC: Number of devices/node                                            4
 DBCSR| ACC: Number of priority stack-buffers                                 40
 DBCSR| ACC: Number of posterior stack-buffers                                80
 DBCSR| ACC: Number of priority streams                                        4
 DBCSR| ACC: Number of posterior streams                                       4
 DBCSR| ACC: Avoid driver after busy                                           F
 DBCSR| ACC: Process inhomogeneous stacks                                      T
 DBCSR| ACC: Min. flop for processing                                          0
 DBCSR| ACC: Min. flop for sorting                                          4000
 DBCSR| ACC: Number of binning bins                                         4096
 DBCSR| ACC: Size of binning bins                                             16
 DBCSR| Split modifier for TAS multiplication algorithm                  1.0E+00


  **** **** ******  **  PROGRAM STARTED AT               2021-07-26 13:43:59.836
 ***** ** ***  *** **   PROGRAM STARTED ON                                r2i7n1
 **    ****   ******    PROGRAM STARTED BY                                hollyj
 ***** **    ** ** **   PROGRAM PROCESS ID                                 19191
  **** **  *******  **  PROGRAM STARTED IN /lustre/home/w68/hollyj/CP2K/Cirrus/G
                                           PU/cp2kMD/ClC-253-BLYP/1STEPS/4NODES/
                                           36CPN/10THREADS

 CP2K| version string:                                          CP2K version 8.2
 CP2K| source code revision number:                                  git:310b7ab
 CP2K| cp2kflags: omp libint fftw3 libxc elpa parallel mpi3 scalapack cosma pw_c
 CP2K|            uda xsmm cuda_profiling dbcsr_acc spglib mkl grid_cuda
 CP2K| is freely available from                            https://www.cp2k.org/
 CP2K| Program compiled at                          Thu Jul 22 18:07:58 BST 2021
 CP2K| Program compiled on                                                r2i5n7
 CP2K| Program compiled for                                           Cirrus-gcc
 CP2K| Data directory path       /lustre/home/w68/hollyj/CP2K/v8.2/cp2k-8.2/data
 CP2K| Input file name                                          ClC-253-cp2k.inp

 GLOBAL| Force Environment number                                              1
 GLOBAL| Basis set file name                                        BASIS_MOLOPT
 GLOBAL| Potential file name                                           POTENTIAL
 GLOBAL| MM Potential file name                                     MM_POTENTIAL
 GLOBAL| Coordinate file name                                            ClC.pdb
 GLOBAL| Method name                                                        CP2K
 GLOBAL| Project name                                               ClC-253-BLYP
 GLOBAL| Run type                                                             MD
 GLOBAL| FFT library                                                       FFTW3
 GLOBAL| Diagonalization library                                            ELPA
 GLOBAL| Minimum number of eigenvectors for ELPA usage                        16
 GLOBAL| Orthonormality check for eigenvectors                          DISABLED
 GLOBAL| Matrix multiplication library                                     COSMA
 GLOBAL| All-to-all communication in single precision                          F
 GLOBAL| FFTs using library dependent lengths                                  F
 GLOBAL| Grid backend                                                       AUTO
 GLOBAL| Global print level                                                  LOW
 GLOBAL| MPI I/O enabled                                                       T
 GLOBAL| Total number of message passing processes                            16
 GLOBAL| Number of threads for this process                                   10
 GLOBAL| This output is from process                                           0
 GLOBAL| CPU model name                 Intel(R) Xeon(R) Gold 6248 CPU @ 2.50GHz
 GLOBAL| CPUID                                                              1003

 MEMORY| system memory details [Kb]
 MEMORY|                        rank 0           min           max       average
 MEMORY| MemTotal            394535408     394535408     394535408     394535408
 MEMORY| MemFree             387782588     387208080     387782588     387390503
 MEMORY| Buffers                     0             0             0             0
 MEMORY| Cached                 778228        756508        778228        769613
 MEMORY| Slab                   877128        877128        964324        932116
 MEMORY| SReclaimable           169176        169176        177980        173297
 MEMORY| MemLikelyFree       388729992     388151892     388729992     388333413



                      ************* ******** ***********   
                     ************* **********************  
                     ****     **** ****      ***********   
                     ******** ****  *******     ****       
                     *******  ****   *******   ****        
                     ****     ****       ****  ****        
                     ****     **** **********  ****        
                      ****     **** ********    ****       
                     FRONTIERS IN SIMULATION TECHNOLOGY    
                                                           
                        C.J. Mundy, S. Balasubramanian,    
                     Ken Bagchi, J. Hutter, Ari Seitsonen  
                      IFW Kuo, T. Laino, J. VandeVondele   
                                 Version 1.0               

                                                           


 EWALD| Summation is done by:                                               SPME
 EWALD| Alpha parameter [       ANGSTROM^-1]                              0.4000
 EWALD| Real Space Cutoff [          ANGSTROM]                            8.4348
 EWALD| G-space max. Miller index                         80        80        80
 EWALD| Spline interpolation order                                             6

 FORCEFIELD| WARNING: A non Critical ForceField parameter is missing! CP2K GOES!
 FORCEFIELD| Non critical parameters are:Urey-Bradley,Torsions,Impropers, Opbends and 1-4
 FORCEFIELD| All missing parameters will not contribute to the potential energy!
 FORCEFIELD| Activate the print key FF_INFO to have a list of missing parameters

 CHARGE_INFO| Total Charge of the Classical System:                     2.369895

 SPLINE_INFO| Generating 85491 splines for NONBONDED14 interactions 
              Due to 413 different atomic kinds
  ...8549  ...17098  ...25647  ...34196  ...42745  ...51294  ...59843  ...68392  ...76941  ...85490
 SPLINE_INFO| Number of unique splines computed:            254
 SPLINE_INFO| Done

 SPLINE_INFO| Generating 85491 splines for NONBONDED interactions 
              Due to 413 different atomic kinds
  ...8549  ...17098  ...25647  ...34196  ...42745  ...51294  ...59843  ...68392  ...76941  ...85490
 SPLINE_INFO| Number of unique splines computed:            254
 SPLINE_INFO| Done

 *******************************************************************************
 *******************************************************************************
 **                                                                           **
 **     #####                         ##              ##                      **
 **    ##   ##            ##          ##              ##                      **
 **   ##     ##                       ##            ######                    **
 **   ##     ##  ##   ##  ##   #####  ##  ##   ####   ##    #####    #####    **
 **   ##     ##  ##   ##  ##  ##      ## ##   ##      ##   ##   ##  ##   ##   **
 **   ##  ## ##  ##   ##  ##  ##      ####     ###    ##   ######   ######    **
 **    ##  ###   ##   ##  ##  ##      ## ##      ##   ##   ##       ##        **
 **     #######   #####   ##   #####  ##  ##  ####    ##    #####   ##        **
 **           ##                                                    ##        **
 **                                                                           **
 **                                                ... make the atoms dance   **
 **                                                                           **
 **            Copyright (C) by CP2K developers group (2000-2021)             **
 **                      J. Chem. Phys. 152, 194103 (2020)                    **
 **                                                                           **
 *******************************************************************************


 TOTAL NUMBERS AND MAXIMUM NUMBERS

  Total number of            - Atomic kinds:                                   6
                             - Atoms:                                        253
                             - Shell sets:                                   253
                             - Shells:                                       991
                             - Primitive Cartesian functions:               1770
                             - Cartesian basis functions:                   2309
                             - Spherical basis functions:                   2193

  Maximum angular momentum of- Orbital basis functions:                        2
                             - Local part of the GTH pseudopotential:          2
                             - Non-local part of the GTH pseudopotential:      2


 SCF PARAMETERS         Density guess:                                   RESTART
                        --------------------------------------------------------
                        max_scf:                                             300
                        max_scf_history:                                       0
                        max_diis:                                              4
                        --------------------------------------------------------
                        eps_scf:                                        1.00E-06
                        eps_scf_history:                                0.00E+00
                        eps_diis:                                       1.00E-01
                        eps_eigval:                                     1.00E-05
                        --------------------------------------------------------
                        level_shift [a.u.]:                                 0.00
                        --------------------------------------------------------
                        No outer SCF

 *******************************************************************************
 *******************************************************************************
 **                                                                           **
 **             #######  ##     ## ##     ## ##     ##                        **
 **            ##     ## ###   ### ###   ### ###   ###                        **
 **            ##     ## #### #### #### #### #### ####                        **
 **            ##     ## ## ### ## ## ### ## ## ### ##                        **
 **            ##  ## ## ##     ## ##     ## ##     ##                        **
 **            ##    ##  ##     ## ##     ## ##     ##  T.Laino and F.Mohamed **
 **             ##### ## ##     ## ##     ## ##     ##  2005 - 2015           **
 **                                                                           **
 **                                                     Calculation Started.. **
 *******************************************************************************
 *******************************************************************************

 MD_PAR| Molecular dynamics protocol (MD input parameters)
 MD_PAR| Ensemble type                                                       NVE
 MD_PAR| Number of time steps                                                  1
 MD_PAR| Time step [fs]                                                 1.000000
 MD_PAR| Temperature [K]                                              300.000000
 MD_PAR| Temperature tolerance [K]                                      0.000000
 MD_PAR| Print MD information every                                    1 step(s)
 MD_PAR| File type   Print frequency [steps]                          File names
 MD_PAR| Coordinates          1                           ClC-253-BLYP-pos-1.xyz
 MD_PAR| Velocities           1                           ClC-253-BLYP-vel-1.xyz
 MD_PAR| Energies             1                              ClC-253-BLYP-1.ener
 MD_PAR| Dump                20                           ClC-253-BLYP-1.restart

 ROT| Rotational analysis information
 ROT| Principal axes and moments of inertia [a.u.]
 ROT|                           1                   2                   3
 ROT| Eigenvalues      6.49908278768+119   9.69266118148+120   9.76757630270+120
 ROT|      x              0.966767624107     -0.244635852463     -0.074254027960
 ROT|      y             -0.214972405609     -0.620674029844     -0.754022952902
 ROT|      z             -0.138373501094     -0.744927545716      0.652637514880
 ROT| Number of rotovibrational vectors                                        6

 DOF| Calculation of degrees of freedom
 DOF| Number of atoms                                                     150925
 DOF| Number of intramolecular constraints                                     0
 DOF| Number of intermolecular constraints                                     0
 DOF| Invariants (translations + rotations)                                    3
 DOF| Degrees of freedom                                                  452772

 DOF| Restraints information
 DOF| Number of intramolecular restraints                                      0
 DOF| Number of intermolecular restraints                                      0

 MD_VEL| Velocities initialization
 MD_VEL| Initial temperature [K]                                      300.000000
 MD_VEL| COM velocity            -0.0000000000     0.0000000000     0.0000000000

  Translating the system in order to center the QM fragment in the QM box.

 Number of electrons:                                                        654
 Number of occupied orbitals:                                                327
 Number of molecular orbitals:                                               327

 Number of orbital functions:                                               2193
 Number of independent orbital functions:                                   2193

 Extrapolation method: initial_guess


 SCF WAVEFUNCTION OPTIMIZATION

  ----------------------------------- OT ---------------------------------------
  Minimizer      : DIIS                : direct inversion
                                         in the iterative subspace
                                         using   7 DIIS vectors
                                         safer DIIS on
  Preconditioner : FULL_ALL            : diagonalization, state selective
  Precond_solver : DEFAULT
  stepsize       :    0.15000000                  energy_gap     :    0.08000000
  eps_taylor     :   0.10000E-15                  max_taylor     :             4
  ----------------------------------- OT ---------------------------------------

  Step     Update method      Time    Convergence         Total energy    Change
  ------------------------------------------------------------------------------
  Decoupling Energy:                                               0.0674872996
  Recoupling Energy:                                              -0.0068222234
     1 OT DIIS     0.15E+00    9.6     0.00001627     -1098.7913677411 -1.10E+03
  Decoupling Energy:                                               0.0674861058
  Recoupling Energy:                                              -0.0068221797
     2 OT DIIS     0.15E+00    1.0     0.00000900     -1098.7913888938 -2.12E-05
  Decoupling Energy:                                               0.0674950603
  Recoupling Energy:                                              -0.0068223087
     3 OT DIIS     0.15E+00    1.0     0.00001460     -1098.7913964549 -7.56E-06
  Decoupling Energy:                                               0.0674896965
  Recoupling Energy:                                              -0.0068222498
     4 OT DIIS     0.15E+00    1.0     0.00000626     -1098.7913998880 -3.43E-06
  Decoupling Energy:                                               0.0674872278
  Recoupling Energy:                                              -0.0068222035
     5 OT DIIS     0.15E+00    1.0     0.00000578     -1098.7914020837 -2.20E-06
  Decoupling Energy:                                               0.0674888303
  Recoupling Energy:                                              -0.0068221999
     6 OT DIIS     0.15E+00    1.0     0.00000580     -1098.7914084634 -6.38E-06
  Decoupling Energy:                                               0.0674891663
  Recoupling Energy:                                              -0.0068222222
     7 OT DIIS     0.15E+00    1.0     0.00000561     -1098.7914167881 -8.32E-06
  Decoupling Energy:                                               0.0674892941
  Recoupling Energy:                                              -0.0068222412
     8 OT DIIS     0.15E+00    1.0     0.00000524     -1098.7914221585 -5.37E-06
  Decoupling Energy:                                               0.0674881907
  Recoupling Energy:                                              -0.0068221895
     9 OT DIIS     0.15E+00    1.0     0.00000516     -1098.7914280315 -5.87E-06
  Decoupling Energy:                                               0.0674891068
  Recoupling Energy:                                              -0.0068222186
    10 OT DIIS     0.15E+00    1.0     0.00000503     -1098.7914326439 -4.61E-06
  Decoupling Energy:                                               0.0674910255
  Recoupling Energy:                                              -0.0068222409
    11 OT DIIS     0.15E+00    1.0     0.00000505     -1098.7914451574 -1.25E-05
  Decoupling Energy:                                               0.0674893445
  Recoupling Energy:                                              -0.0068222092
    12 OT DIIS     0.15E+00    1.0     0.00000544     -1098.7914511015 -5.94E-06
  Decoupling Energy:                                               0.0674886192
  Recoupling Energy:                                              -0.0068221746
    13 OT DIIS     0.15E+00    1.0     0.00000506     -1098.7914589353 -7.83E-06
  Decoupling Energy:                                               0.0674897272
  Recoupling Energy:                                              -0.0068221819
    14 OT DIIS     0.15E+00    1.0     0.00000482     -1098.7914634348 -4.50E-06
  Decoupling Energy:                                               0.0674896707
  Recoupling Energy:                                              -0.0068222125
    15 OT DIIS     0.15E+00    1.0     0.00000471     -1098.7914698145 -6.38E-06
  Decoupling Energy:                                               0.0674902115
  Recoupling Energy:                                              -0.0068221925
    16 OT DIIS     0.15E+00    1.0     0.00000482     -1098.7914781062 -8.29E-06
  Decoupling Energy:                                               0.0674901472
  Recoupling Energy:                                              -0.0068221797
    17 OT DIIS     0.15E+00    1.0     0.00000498     -1098.7914886289 -1.05E-05
  Decoupling Energy:                                               0.0674880435
  Recoupling Energy:                                              -0.0068221048
    18 OT DIIS     0.15E+00    1.0     0.00000526     -1098.7915022664 -1.36E-05
  Decoupling Energy:                                               0.0674897586
  Recoupling Energy:                                              -0.0068221785
    19 OT DIIS     0.15E+00    1.0     0.00000471     -1098.7915055207 -3.25E-06
  Decoupling Energy:                                               0.0674872475
  Recoupling Energy:                                              -0.0068220953
    20 OT DIIS     0.15E+00    1.0     0.00000508     -1098.7915154560 -9.94E-06
  Decoupling Energy:                                               0.0674906167
  Recoupling Energy:                                              -0.0068222473
    21 OT DIIS     0.15E+00    1.0     0.00000457     -1098.7915235632 -8.11E-06
  Decoupling Energy:                                               0.0674882094
  Recoupling Energy:                                              -0.0068221454
    22 OT DIIS     0.15E+00    1.0     0.00000473     -1098.7915323917 -8.83E-06
  Decoupling Energy:                                               0.0674847827
  Recoupling Energy:                                              -0.0068220505
    23 OT DIIS     0.15E+00    1.0     0.00000542     -1098.7915548569 -2.25E-05
  Decoupling Energy:                                               0.0674699960
  Recoupling Energy:                                              -0.0068215480
    24 OT DIIS     0.15E+00    1.0     0.00001418     -1098.7915841560 -2.93E-05
  Decoupling Energy:                                               0.0674739933
  Recoupling Energy:                                              -0.0068217824
    25 OT SD       0.15E+00    1.0     0.00000724     -1098.7915868327 -2.68E-06
  Decoupling Energy:                                               0.0674836505
  Recoupling Energy:                                              -0.0068222788
    26 OT SD       0.15E+00    1.0     0.00001712     -1098.7915858285  1.00E-06
  Decoupling Energy:                                               0.0674808642
  Recoupling Energy:                                              -0.0068216362
    27 OT DIIS     0.15E+00    1.0     0.00005727     -1098.7915520468  3.38E-05
  Decoupling Energy:                                               0.0674947418
  Recoupling Energy:                                              -0.0068224728
    28 OT DIIS     0.15E+00    1.0     0.00000821     -1098.7915724251 -2.04E-05
  Decoupling Energy:                                               0.0674768507
  Recoupling Energy:                                              -0.0068218846
    29 OT DIIS     0.15E+00    1.0     0.00000539     -1098.7915985535 -2.61E-05
  Decoupling Energy:                                               0.0674835214
  Recoupling Energy:                                              -0.0068221007
    30 OT SD       0.15E+00    1.0     0.00000463     -1098.7916040725 -5.52E-06
  Decoupling Energy:                                               0.0674810457
  Recoupling Energy:                                              -0.0068220181
    31 OT DIIS     0.15E+00    1.0     0.00000894     -1098.7916049463 -8.74E-07
  Decoupling Energy:                                               0.0674855074
  Recoupling Energy:                                              -0.0068221340
    32 OT SD       0.15E+00    1.0     0.00000392     -1098.7916135978 -8.65E-06
  Decoupling Energy:                                               0.0674890623
  Recoupling Energy:                                              -0.0068222227
    33 OT DIIS     0.15E+00    1.0     0.00000540     -1098.7916148950 -1.30E-06
  Decoupling Energy:                                               0.0674876840
  Recoupling Energy:                                              -0.0068221546
    34 OT DIIS     0.15E+00    1.0     0.00000373     -1098.7916208254 -5.93E-06
  Decoupling Energy:                                               0.0674877213
  Recoupling Energy:                                              -0.0068221785
    35 OT DIIS     0.15E+00    1.0     0.00000370     -1098.7916231370 -2.31E-06
  Decoupling Energy:                                               0.0674875505
  Recoupling Energy:                                              -0.0068221509
    36 OT DIIS     0.15E+00    1.0     0.00000400     -1098.7916341155 -1.10E-05
  Decoupling Energy:                                               0.0674875255
  Recoupling Energy:                                              -0.0068221469
    37 OT DIIS     0.15E+00    1.0     0.00000377     -1098.7916392175 -5.10E-06
  Decoupling Energy:                                               0.0674846560
  Recoupling Energy:                                              -0.0068220695
    38 OT SD       0.15E+00    1.0     0.00000380     -1098.7916448029 -5.59E-06
  Decoupling Energy:                                               0.0674855381
  Recoupling Energy:                                              -0.0068221506
    39 OT DIIS     0.15E+00    1.0     0.00000675     -1098.7916456622 -8.59E-07
  Decoupling Energy:                                               0.0674807381
  Recoupling Energy:                                              -0.0068219768
    40 OT SD       0.15E+00    1.0     0.00000454     -1098.7916593298 -1.37E-05
  Decoupling Energy:                                               0.0674769458
  Recoupling Energy:                                              -0.0068219670
    41 OT SD       0.15E+00    1.0     0.00000937     -1098.7916596928 -3.63E-07
  Decoupling Energy:                                               0.0674895012
  Recoupling Energy:                                              -0.0068221138
    42 OT DIIS     0.15E+00    1.0     0.00002997     -1098.7916510972  8.60E-06
  Decoupling Energy:                                               0.0674782357
  Recoupling Energy:                                              -0.0068219392
    43 OT DIIS     0.15E+00    1.0     0.00000365     -1098.7916657043 -1.46E-05
  Decoupling Energy:                                               0.0674784760
  Recoupling Energy:                                              -0.0068219407
    44 OT DIIS     0.15E+00    1.0     0.00000337     -1098.7916710196 -5.32E-06
  Decoupling Energy:                                               0.0674762165
  Recoupling Energy:                                              -0.0068219283
    45 OT DIIS     0.15E+00    1.0     0.00000362     -1098.7916812888 -1.03E-05
  Decoupling Energy:                                               0.0674769520
  Recoupling Energy:                                              -0.0068219474
    46 OT DIIS     0.15E+00    1.0     0.00000327     -1098.7916849592 -3.67E-06
  Decoupling Energy:                                               0.0674741791
  Recoupling Energy:                                              -0.0068218721
    47 OT DIIS     0.15E+00    1.0     0.00000448     -1098.7916952856 -1.03E-05
  Decoupling Energy:                                               0.0674755255
  Recoupling Energy:                                              -0.0068219163
    48 OT DIIS     0.15E+00    1.0     0.00000311     -1098.7916980959 -2.81E-06
  Decoupling Energy:                                               0.0674742304
  Recoupling Energy:                                              -0.0068219045
    49 OT DIIS     0.15E+00    1.0     0.00000553     -1098.7917083171 -1.02E-05
  Decoupling Energy:                                               0.0674775577
  Recoupling Energy:                                              -0.0068219922
    50 OT DIIS     0.15E+00    1.0     0.00000379     -1098.7917138546 -5.54E-06
  Decoupling Energy:                                               0.0674794172
  Recoupling Energy:                                              -0.0068220209
    51 OT DIIS     0.15E+00    1.0     0.00000292     -1098.7917207755 -6.92E-06
  Decoupling Energy:                                               0.0674785962
  Recoupling Energy:                                              -0.0068219592
    52 OT DIIS     0.15E+00    1.0     0.00000418     -1098.7917246135 -3.84E-06
  Decoupling Energy:                                               0.0674806858
  Recoupling Energy:                                              -0.0068220148
    53 OT DIIS     0.15E+00    1.0     0.00000296     -1098.7917268986 -2.29E-06
  Decoupling Energy:                                               0.0674828511
  Recoupling Energy:                                              -0.0068220704
    54 OT DIIS     0.15E+00    1.0     0.00000536     -1098.7917366484 -9.75E-06
  Decoupling Energy:                                               0.0674845456
  Recoupling Energy:                                              -0.0068221027
    55 OT DIIS     0.15E+00    1.0     0.00000312     -1098.7917368523 -2.04E-07
  Decoupling Energy:                                               0.0674881574
  Recoupling Energy:                                              -0.0068221628
    56 OT SD       0.15E+00    1.0     0.00000634     -1098.7917470923 -1.02E-05
  Decoupling Energy:                                               0.0674739782
  Recoupling Energy:                                              -0.0068218352
    57 OT SD       0.15E+00    1.0     0.00001492     -1098.7917455911  1.50E-06
  Decoupling Energy:                                               0.0675039583
  Recoupling Energy:                                              -0.0068225999
    58 OT DIIS     0.15E+00    1.0     0.00004736     -1098.7917175235  2.81E-05
  Decoupling Energy:                                               0.0674835367
  Recoupling Energy:                                              -0.0068220172
    59 OT DIIS     0.15E+00    1.0     0.00000335     -1098.7917459876 -2.85E-05
  Decoupling Energy:                                               0.0674899687
  Recoupling Energy:                                              -0.0068222439
    60 OT DIIS     0.15E+00    1.0     0.00000258     -1098.7917499338 -3.95E-06
  Decoupling Energy:                                               0.0674929386
  Recoupling Energy:                                              -0.0068223217
    61 OT DIIS     0.15E+00    1.0     0.00000395     -1098.7917557393 -5.81E-06
  Decoupling Energy:                                               0.0674936179
  Recoupling Energy:                                              -0.0068223074
    62 OT DIIS     0.15E+00    1.0     0.00000310     -1098.7917584005 -2.66E-06
  Decoupling Energy:                                               0.0674928213
  Recoupling Energy:                                              -0.0068222706
    63 OT SD       0.15E+00    1.0     0.00000252     -1098.7917598036 -1.40E-06
  Decoupling Energy:                                               0.0674896212
  Recoupling Energy:                                              -0.0068222093
    64 OT DIIS     0.15E+00    1.0     0.00000349     -1098.7917602532 -4.50E-07
  Decoupling Energy:                                               0.0674942059
  Recoupling Energy:                                              -0.0068223189
    65 OT DIIS     0.15E+00    1.0     0.00000280     -1098.7917666793 -6.43E-06
  Decoupling Energy:                                               0.0674936669
  Recoupling Energy:                                              -0.0068222776
    66 OT DIIS     0.15E+00    1.0     0.00000303     -1098.7917685153 -1.84E-06
  Decoupling Energy:                                               0.0674963080
  Recoupling Energy:                                              -0.0068223423
    67 OT DIIS     0.15E+00    1.0     0.00000323     -1098.7917735268 -5.01E-06
  Decoupling Energy:                                               0.0674995516
  Recoupling Energy:                                              -0.0068224255
    68 OT SD       0.15E+00    1.0     0.00000371     -1098.7917786252 -5.10E-06
  Decoupling Energy:                                               0.0674871455
  Recoupling Energy:                                              -0.0068220790
    69 OT SD       0.15E+00    1.0     0.00000772     -1098.7917784656  1.60E-07
  Decoupling Energy:                                               0.0675067723
  Recoupling Energy:                                              -0.0068226901
    70 OT DIIS     0.15E+00    1.0     0.00002225     -1098.7917732380  5.23E-06
  Decoupling Energy:                                               0.0674927592
  Recoupling Energy:                                              -0.0068222602
    71 OT DIIS     0.15E+00    1.0     0.00000226     -1098.7917801502 -6.91E-06
  Decoupling Energy:                                               0.0674966062
  Recoupling Energy:                                              -0.0068223555
    72 OT DIIS     0.15E+00    1.0     0.00000256     -1098.7917837928 -3.64E-06
  Decoupling Energy:                                               0.0674997870
  Recoupling Energy:                                              -0.0068224447
    73 OT DIIS     0.15E+00    1.0     0.00000330     -1098.7917896446 -5.85E-06
  Decoupling Energy:                                               0.0675095749
  Recoupling Energy:                                              -0.0068227146
    74 OT DIIS     0.15E+00    1.0     0.00000541     -1098.7917973560 -7.71E-06
  Decoupling Energy:                                               0.0675084204
  Recoupling Energy:                                              -0.0068226650
    75 OT SD       0.15E+00    1.0     0.00000467     -1098.7917993105 -1.95E-06
  Decoupling Energy:                                               0.0674911617
  Recoupling Energy:                                              -0.0068221561
    76 OT SD       0.15E+00    1.0     0.00000995     -1098.7917986295  6.81E-07
  Decoupling Energy:                                               0.0675158983
  Recoupling Energy:                                              -0.0068229845
    77 OT DIIS     0.15E+00    1.0     0.00002850     -1098.7917895924  9.04E-06
  Decoupling Energy:                                               0.0674877808
  Recoupling Energy:                                              -0.0068221437
    78 OT DIIS     0.15E+00    1.0     0.00000330     -1098.7917970927 -7.50E-06
  Decoupling Energy:                                               0.0675000147
  Recoupling Energy:                                              -0.0068224305
    79 OT DIIS     0.15E+00    1.0     0.00000254     -1098.7918009461 -3.85E-06
  Decoupling Energy:                                               0.0674983481
  Recoupling Energy:                                              -0.0068223889
    80 OT DIIS     0.15E+00    1.0     0.00000174     -1098.7918019738 -1.03E-06
  Decoupling Energy:                                               0.0674932311
  Recoupling Energy:                                              -0.0068222609
    81 OT DIIS     0.15E+00    1.0     0.00000154     -1098.7918022743 -3.00E-07
  Decoupling Energy:                                               0.0674931107
  Recoupling Energy:                                              -0.0068222502
    82 OT DIIS     0.15E+00    1.0     0.00000158     -1098.7918030836 -8.09E-07
  Decoupling Energy:                                               0.0674941937
  Recoupling Energy:                                              -0.0068222773
    83 OT DIIS     0.15E+00    1.0     0.00000151     -1098.7918033927 -3.09E-07
  Decoupling Energy:                                               0.0674935296
  Recoupling Energy:                                              -0.0068222462
    84 OT DIIS     0.15E+00    1.0     0.00000146     -1098.7918049109 -1.52E-06
  Decoupling Energy:                                               0.0674921690
  Recoupling Energy:                                              -0.0068222163
    85 OT DIIS     0.15E+00    1.0     0.00000148     -1098.7918052917 -3.81E-07
  Decoupling Energy:                                               0.0674927041
  Recoupling Energy:                                              -0.0068222117
    86 OT DIIS     0.15E+00    1.0     0.00000137     -1098.7918068025 -1.51E-06
  Decoupling Energy:                                               0.0674932285
  Recoupling Energy:                                              -0.0068222212
    87 OT DIIS     0.15E+00    1.0     0.00000137     -1098.7918082016 -1.40E-06
  Decoupling Energy:                                               0.0674933004
  Recoupling Energy:                                              -0.0068222109
    88 OT DIIS     0.15E+00    1.0     0.00000135     -1098.7918094074 -1.21E-06
  Decoupling Energy:                                               0.0674940509
  Recoupling Energy:                                              -0.0068222214
    89 OT DIIS     0.15E+00    1.0     0.00000132     -1098.7918106739 -1.27E-06
  Decoupling Energy:                                               0.0674950600
  Recoupling Energy:                                              -0.0068222481
    90 OT DIIS     0.15E+00    1.0     0.00000135     -1098.7918118274 -1.15E-06
  Decoupling Energy:                                               0.0674958224
  Recoupling Energy:                                              -0.0068222625
    91 OT DIIS     0.15E+00    1.0     0.00000132     -1098.7918127588 -9.31E-07
  Decoupling Energy:                                               0.0674958880
  Recoupling Energy:                                              -0.0068222612
    92 OT DIIS     0.15E+00    1.0     0.00000129     -1098.7918136739 -9.15E-07
  Decoupling Energy:                                               0.0674962675
  Recoupling Energy:                                              -0.0068222797
    93 OT DIIS     0.15E+00    1.0     0.00000142     -1098.7918146244 -9.50E-07
  Decoupling Energy:                                               0.0674997114
  Recoupling Energy:                                              -0.0068223473
    94 OT DIIS     0.15E+00    1.0     0.00000146     -1098.7918163463 -1.72E-06
  Decoupling Energy:                                               0.0675001570
  Recoupling Energy:                                              -0.0068223567
    95 OT DIIS     0.15E+00    1.0     0.00000139     -1098.7918170201 -6.74E-07
  Decoupling Energy:                                               0.0674986174
  Recoupling Energy:                                              -0.0068223211
    96 OT DIIS     0.15E+00    1.0     0.00000126     -1098.7918177321 -7.12E-07
  Decoupling Energy:                                               0.0675042107
  Recoupling Energy:                                              -0.0068224457
    97 OT DIIS     0.15E+00    1.0     0.00000173     -1098.7918202592 -2.53E-06
  Decoupling Energy:                                               0.0675025235
  Recoupling Energy:                                              -0.0068223938
    98 OT DIIS     0.15E+00    1.0     0.00000131     -1098.7918219930 -1.73E-06
  Decoupling Energy:                                               0.0675113577
  Recoupling Energy:                                              -0.0068225883
    99 OT DIIS     0.15E+00    1.0     0.00000250     -1098.7918252710 -3.28E-06
  Decoupling Energy:                                               0.0675135591
  Recoupling Energy:                                              -0.0068226239
   100 OT DIIS     0.15E+00    1.0     0.00000283     -1098.7918264478 -1.18E-06
  Decoupling Energy:                                               0.0675143433
  Recoupling Energy:                                              -0.0068226421
   101 OT SD       0.15E+00    1.0     0.00000280     -1098.7918269378 -4.90E-07
  Decoupling Energy:                                               0.0675020574
  Recoupling Energy:                                              -0.0068222633
   102 OT SD       0.15E+00    1.0     0.00000578     -1098.7918267222  2.16E-07
  Decoupling Energy:                                               0.0675170995
  Recoupling Energy:                                              -0.0068228890
   103 OT DIIS     0.15E+00    1.0     0.00001537     -1098.7918240267  2.70E-06
  Decoupling Energy:                                               0.0675040177
  Recoupling Energy:                                              -0.0068224036
   104 OT SD       0.15E+00    1.0     0.00000119     -1098.7918268997 -2.87E-06
  Decoupling Energy:                                               0.0675030593
  Recoupling Energy:                                              -0.0068223828
   105 OT DIIS     0.15E+00    1.0     0.00000184     -1098.7918269858 -8.62E-08
  Decoupling Energy:                                               0.0675030231
  Recoupling Energy:                                              -0.0068223822
   106 OT SD       0.15E+00    1.0     0.00000107     -1098.7918279419 -9.56E-07
  Decoupling Energy:                                               0.0675015926
  Recoupling Energy:                                              -0.0068223424
   107 OT DIIS     0.15E+00    1.0     0.00000150     -1098.7918280318 -8.99E-08
  Decoupling Energy:                                               0.0675000620
  Recoupling Energy:                                              -0.0068223115
   108 OT DIIS     0.15E+00    1.0     0.00000102     -1098.7918291213 -1.09E-06
  Decoupling Energy:                                               0.0675017041
  Recoupling Energy:                                              -0.0068223448
   109 OT SD       0.15E+00    1.0     0.00000113     -1098.7918307075 -1.59E-06
  Decoupling Energy:                                               0.0674986309
  Recoupling Energy:                                              -0.0068222508
   110 OT DIIS     0.15E+00    1.0     0.00000207     -1098.7918307538 -4.64E-08
  Decoupling Energy:                                               0.0675008544
  Recoupling Energy:                                              -0.0068223091
   111 OT DIIS     0.15E+00    1.0     0.00000101     -1098.7918321541 -1.40E-06
  Decoupling Energy:                                               0.0675034907
  Recoupling Energy:                                              -0.0068223556
   112 OT SD       0.15E+00    1.0     0.00000140     -1098.7918337708 -1.62E-06
  Decoupling Energy:                                               0.0674990326
  Recoupling Energy:                                              -0.0068222240
   113 OT SD       0.15E+00    1.0     0.00000286     -1098.7918337654  5.38E-09
  Decoupling Energy:                                               0.0675053641
  Recoupling Energy:                                              -0.0068224720
   114 OT DIIS     0.15E+00    1.0     0.00000818     -1098.7918330815  6.84E-07
  Decoupling Energy:                                               0.0675023014
  Recoupling Energy:                                              -0.0068223194
   115 OT DIIS     0.15E+00    1.0     0.00000090     -1098.7918350428 -1.96E-06

  *** SCF run converged in   115 steps ***


  Electronic density on regular grids:       -654.0000008477       -0.0000008477
  Core density on regular grids:              654.9999999993       -0.0000000007
  Total charge density on r-space grids:        0.9999991516
  Total charge density g-space grids:           0.9999991516

  Overlap energy of the core charge distribution:               0.00004213532864
  Self energy of the core charge distribution:              -2459.11679630764229
  Core Hamiltonian energy:                                    751.03827329034732
  Hartree energy:                                            1002.26599847285729
  Exchange-correlation energy:                               -294.03608203491871
  QM/MM Electrostatic energy:                                 -98.94327059873126

  Total energy:                                             -1098.79183504275898
  Decoupling Energy:                                               0.0675042503
  Recoupling Energy:                                              -0.0068223489

 ENERGY| Total FORCE_EVAL ( QMMM ) energy [a.u.]:          -1469.875704552672232

 MD_INI| MD initialization
 MD_INI| Potential energy [hartree]                          -0.146987570455E+04
 MD_INI| Total kinetic energy [hartree]                       0.215076797492E+03
 MD_INI| QM kinetic energy [hartree]                          0.369606607592E+00
 MD_INI| Total temperature [K]                                        300.000000
 MD_INI| QM temperature [K]                                           307.542546
 MD_INI| Cell volume [bohr^3]                                 9.853827160554E+06
 MD_INI| Cell volume [ang^3]                                  1.460186515536E+06
 MD_INI| Cell lengths [bohr]      2.39870119E+02  2.39870119E+02  1.71258698E+02
 MD_INI| Cell lengths [ang]       1.26933800E+02  1.26933800E+02  9.06262000E+01
 MD_INI| Cell angles [deg]        9.00000000E+01  9.00000000E+01  9.00000000E+01

  Translating the system in order to center the QM fragment in the QM box.

 Number of electrons:                                                        654
 Number of occupied orbitals:                                                327
 Number of molecular orbitals:                                               327

 Number of orbital functions:                                               2193
 Number of independent orbital functions:                                   2193

 Extrapolation method: ASPC


 SCF WAVEFUNCTION OPTIMIZATION

  ----------------------------------- OT ---------------------------------------
  Minimizer      : DIIS                : direct inversion
                                         in the iterative subspace
                                         using   7 DIIS vectors
                                         safer DIIS on
  Preconditioner : FULL_ALL            : diagonalization, state selective
  Precond_solver : DEFAULT
  stepsize       :    0.15000000                  energy_gap     :    0.08000000
  eps_taylor     :   0.10000E-15                  max_taylor     :             4
  ----------------------------------- OT ---------------------------------------

  Step     Update method      Time    Convergence         Total energy    Change
  ------------------------------------------------------------------------------
  Decoupling Energy:                                               0.0676685769
  Recoupling Energy:                                              -0.0068237658
     1 OT DIIS     0.15E+00    1.6     0.00038786     -1098.3649187272 -1.10E+03
  Decoupling Energy:                                               0.0674457460
  Recoupling Energy:                                              -0.0068207505
     2 OT DIIS     0.15E+00    1.0     0.00028126     -1098.3740108657 -9.09E-03
  Decoupling Energy:                                               0.0676534524
  Recoupling Energy:                                              -0.0068214053
     3 OT DIIS     0.15E+00    1.0     0.00045485     -1098.3736134725  3.97E-04
  Decoupling Energy:                                               0.0674799879
  Recoupling Energy:                                              -0.0068214003
     4 OT DIIS     0.15E+00    1.0     0.00017690     -1098.3760483637 -2.43E-03
  Decoupling Energy:                                               0.0674311590
  Recoupling Energy:                                              -0.0068207547
     5 OT DIIS     0.15E+00    1.0     0.00005930     -1098.3765467666 -4.98E-04
  Decoupling Energy:                                               0.0674480350
  Recoupling Energy:                                              -0.0068203573
     6 OT DIIS     0.15E+00    1.0     0.00004396     -1098.3765894811 -4.27E-05
  Decoupling Energy:                                               0.0674579526
  Recoupling Energy:                                              -0.0068208248
     7 OT DIIS     0.15E+00    1.0     0.00001585     -1098.3766115354 -2.21E-05
  Decoupling Energy:                                               0.0674444056
  Recoupling Energy:                                              -0.0068207258
     8 OT DIIS     0.15E+00    1.0     0.00000827     -1098.3766176410 -6.11E-06
  Decoupling Energy:                                               0.0674431191
  Recoupling Energy:                                              -0.0068205894
     9 OT DIIS     0.15E+00    1.0     0.00000614     -1098.3766199666 -2.33E-06
  Decoupling Energy:                                               0.0674463638
  Recoupling Energy:                                              -0.0068208243
    10 OT DIIS     0.15E+00    1.0     0.00000529     -1098.3766227289 -2.76E-06
  Decoupling Energy:                                               0.0674354868
  Recoupling Energy:                                              -0.0068206239
    11 OT DIIS     0.15E+00    1.0     0.00000391     -1098.3766253874 -2.66E-06
  Decoupling Energy:                                               0.0674363555
  Recoupling Energy:                                              -0.0068207093
    12 OT DIIS     0.15E+00    1.0     0.00000309     -1098.3766276513 -2.26E-06
  Decoupling Energy:                                               0.0674337807
  Recoupling Energy:                                              -0.0068207256
    13 OT DIIS     0.15E+00    1.0     0.00000291     -1098.3766291319 -1.48E-06
  Decoupling Energy:                                               0.0674334133
  Recoupling Energy:                                              -0.0068207028
    14 OT DIIS     0.15E+00    1.0     0.00000290     -1098.3766299012 -7.69E-07
  Decoupling Energy:                                               0.0674327922
  Recoupling Energy:                                              -0.0068207266
    15 OT DIIS     0.15E+00    1.0     0.00000264     -1098.3766307082 -8.07E-07
  Decoupling Energy:                                               0.0674319911
  Recoupling Energy:                                              -0.0068207300
    16 OT DIIS     0.15E+00    1.0     0.00000242     -1098.3766313648 -6.57E-07
  Decoupling Energy:                                               0.0674326734
  Recoupling Energy:                                              -0.0068207336
    17 OT DIIS     0.15E+00    1.0     0.00000213     -1098.3766319168 -5.52E-07
  Decoupling Energy:                                               0.0674333933
  Recoupling Energy:                                              -0.0068207737
    18 OT DIIS     0.15E+00    1.0     0.00000187     -1098.3766327507 -8.34E-07
  Decoupling Energy:                                               0.0674305870
  Recoupling Energy:                                              -0.0068207157
    19 OT DIIS     0.15E+00    1.0     0.00000170     -1098.3766332647 -5.14E-07
  Decoupling Energy:                                               0.0674312211
  Recoupling Energy:                                              -0.0068207489
    20 OT DIIS     0.15E+00    1.0     0.00000150     -1098.3766338780 -6.13E-07
  Decoupling Energy:                                               0.0674308108
  Recoupling Energy:                                              -0.0068207379
    21 OT DIIS     0.15E+00    1.0     0.00000140     -1098.3766343662 -4.88E-07
  Decoupling Energy:                                               0.0674299900
  Recoupling Energy:                                              -0.0068207237
    22 OT DIIS     0.15E+00    1.0     0.00000141     -1098.3766347199 -3.54E-07
  Decoupling Energy:                                               0.0674290053
  Recoupling Energy:                                              -0.0068207129
    23 OT DIIS     0.15E+00    1.0     0.00000139     -1098.3766350745 -3.55E-07
  Decoupling Energy:                                               0.0674285704
  Recoupling Energy:                                              -0.0068207030
    24 OT DIIS     0.15E+00    1.0     0.00000135     -1098.3766353391 -2.65E-07
  Decoupling Energy:                                               0.0674284039
  Recoupling Energy:                                              -0.0068206934
    25 OT DIIS     0.15E+00    1.0     0.00000126     -1098.3766356412 -3.02E-07
  Decoupling Energy:                                               0.0674278945
  Recoupling Energy:                                              -0.0068206887
    26 OT DIIS     0.15E+00    1.0     0.00000115     -1098.3766360041 -3.63E-07
  Decoupling Energy:                                               0.0674264008
  Recoupling Energy:                                              -0.0068206538
    27 OT DIIS     0.15E+00    1.0     0.00000110     -1098.3766362241 -2.20E-07
  Decoupling Energy:                                               0.0674262821
  Recoupling Energy:                                              -0.0068206577
    28 OT DIIS     0.15E+00    1.0     0.00000104     -1098.3766364784 -2.54E-07
  Decoupling Energy:                                               0.0674260729
  Recoupling Energy:                                              -0.0068206467
    29 OT DIIS     0.15E+00    1.0     0.00000101     -1098.3766367296 -2.51E-07
  Decoupling Energy:                                               0.0674256120
  Recoupling Energy:                                              -0.0068206358
    30 OT DIIS     0.15E+00    1.0     0.00000101     -1098.3766369681 -2.38E-07
  Decoupling Energy:                                               0.0674251631
  Recoupling Energy:                                              -0.0068206300
    31 OT DIIS     0.15E+00    1.0     0.00000101     -1098.3766372096 -2.42E-07
  Decoupling Energy:                                               0.0674251519
  Recoupling Energy:                                              -0.0068206264
    32 OT DIIS     0.15E+00    1.0     0.00000099     -1098.3766373852 -1.76E-07

  *** SCF run converged in    32 steps ***


  Electronic density on regular grids:       -654.0000005663       -0.0000005663
  Core density on regular grids:              654.9999999988       -0.0000000012
  Total charge density on r-space grids:        0.9999994326
  Total charge density g-space grids:           0.9999994326

  Overlap energy of the core charge distribution:               0.00004332475903
  Self energy of the core charge distribution:              -2459.11679630764229
  Core Hamiltonian energy:                                    750.78618673794995
  Hartree energy:                                            1002.45030824148159
  Exchange-correlation energy:                               -293.96934595340076
  QM/MM Electrostatic energy:                                 -98.52703342835635

  Total energy:                                             -1098.37663738520860
  Decoupling Energy:                                               0.0674253560
  Recoupling Energy:                                              -0.0068206266

 ENERGY| Total FORCE_EVAL ( QMMM ) energy [a.u.]:          -1447.997668666630489

 MD| ***************************************************************************
 MD| Step number                                                               1
 MD| Time [fs]                                                          1.000000
 MD| Conserved quantity [hartree]                            -0.124929046419E+04
 MD| ---------------------------------------------------------------------------
 MD|                                          Instantaneous             Averages
 MD| CPU time per MD step [s]                    241.840534           241.840534
 MD| Energy drift per atom [K]           0.115251059032E+02   0.000000000000E+00
 MD| Potential energy [hartree]         -0.144799766867E+04  -0.144799766867E+04
 MD| Total kinetic energy [hartree]      0.198707204478E+03   0.198707204478E+03
 MD| QM kinetic energy [hartree]         0.373152772028E+00   0.373152772028E+00
 MD| Total temperature [K]                       277.166863           277.166863
 MD| QM temperature [K]                          310.493242           310.493242
 MD| ***************************************************************************

 -------------------------------------------------------------------------------
 -                                                                             -
 -                                DBCSR STATISTICS                             -
 -                                                                             -
 -------------------------------------------------------------------------------
 COUNTER                                    TOTAL       BLAS       SMM       ACC
 flops     7 x     7 x     7               714126       0.0%      0.0%    100.0%
 flops    32 x     7 x     7             32645760       0.0%      0.0%    100.0%
 flops     7 x    32 x     7             32645760       0.0%      0.0%    100.0%
 flops     7 x     7 x    32             32645760       0.0%      0.0%    100.0%
 flops     7 x     7 x     5             39606700       0.0%      0.0%    100.0%
 flops     5 x     7 x     7             49474810       0.0%      0.0%    100.0%
 flops     7 x     7 x    13             87192560       0.0%      0.0%    100.0%
 flops    13 x     7 x     7            108916808       0.0%      0.0%    100.0%
 flops     5 x     5 x     7            499591050       0.0%      0.0%    100.0%
 flops    13 x     5 x     7           1090485760       0.0%      0.0%    100.0%
 flops     5 x    13 x     7           1091035400       0.0%      0.0%    100.0%
 flops    32 x    32 x     7           1492377600       0.0%      0.0%    100.0%
 flops    32 x     7 x    32           1492377600       0.0%      0.0%    100.0%
 flops     7 x    32 x    32           1492377600       0.0%      0.0%    100.0%
 flops    32 x     7 x     5           1810592000       0.0%      0.0%    100.0%
 flops     7 x    32 x     5           1810592000       0.0%      0.0%    100.0%
 flops     5 x    32 x     7           2255568000       0.0%      0.0%    100.0%
 flops     5 x     7 x    32           2255568000       0.0%      0.0%    100.0%
 flops    13 x    13 x     7           2388323210       0.0%      0.0%    100.0%
 flops     5 x     7 x     5           3980904900       0.0%      0.0%    100.0%
 flops    32 x     7 x    13           3985945600       0.0%      0.0%    100.0%
 flops     7 x    32 x    13           3985945600       0.0%      0.0%    100.0%
 flops    13 x    32 x     7           4965542400       0.0%      0.0%    100.0%
 flops    13 x     7 x    32           4965542400       0.0%      0.0%    100.0%
 flops    13 x     7 x     5           8759317840       0.0%      0.0%    100.0%
 flops     5 x     7 x    13           8759317840       0.0%      0.0%    100.0%
 flops    13 x     7 x    13          19145955920       0.0%      0.0%    100.0%
 flops     5 x     5 x    32          22838448000       0.0%      0.0%    100.0%
 flops    13 x     5 x    32          49850777600       0.0%      0.0%    100.0%
 flops     5 x    13 x    32          49875904000       0.0%      0.0%    100.0%
 flops    32 x    32 x    32          68222976000       0.0%      0.0%    100.0%
 flops    32 x    32 x     5          82769920000       0.0%      0.0%    100.0%
 flops     5 x    32 x    32         103139737600       0.0%      0.0%    100.0%
 flops    13 x    13 x    32         109180489600       0.0%      0.0%    100.0%
 flops     5 x    32 x     5         181984224000       0.0%      0.0%    100.0%
 flops    32 x    32 x    13         182214656000       0.0%      0.0%    100.0%
 flops    13 x    32 x    32         227057991680       0.0%      0.0%    100.0%
 flops    13 x    32 x     5         400425958400       0.0%      0.0%    100.0%
 flops     5 x    32 x    13         400425958400       0.0%      0.0%    100.0%
 flops    13 x    32 x    13         875243699200       0.0%      0.0%    100.0%
 flops inhomo. stacks                           0       0.0%      0.0%      0.0%
 flops total                         2.829842E+12       0.0%      0.0%    100.0%
 flops max/rank                    211.117088E+09       0.0%      0.0%    100.0%
 matmuls inhomo. stacks                         0       0.0%      0.0%      0.0%
 matmuls total                          521019818       0.0%      0.0%    100.0%
 number of processed stacks               4430015       0.0%      0.0%    100.0%
 average stack size                                     0.0     171.4     117.6
 marketing flops                     3.077046E+12
 -------------------------------------------------------------------------------
 # multiplications                           3127
 max memory usage/rank               2.219905E+09
 # max total images/rank                        1
 # max 3D layers                                1
 # MPI messages exchanged                  300192
 MPI messages size (bytes):
  total size                       125.526614E+09
  min size                           0.000000E+00
  max size                           2.437632E+06
  average size                     418.154438E+03
 MPI breakdown and total messages size (bytes):
             size <=      128                 264                        0
       128 < size <=     8192                   0                        0
      8192 < size <=    32768                8475                277416240
     32768 < size <=   131072              126765               6952333464
    131072 < size <=  4194304              164688             118298119800
   4194304 < size <= 16777216                   0                        0
  16777216 < size                               0                        0
 -------------------------------------------------------------------------------
 -                                                                             -
 -                      DBCSR MESSAGE PASSING PERFORMANCE                      -
 -                                                                             -
 -------------------------------------------------------------------------------
 ROUTINE             CALLS      AVE VOLUME [Bytes]
 MP_Bcast               41                     12.
 MP_Allreduce        11353                      8.
 MP_Alltoall          9584                  29547.
 MP_ISend            50024                 172963.
 MP_IRecv            50024                 168244.
 -------------------------------------------------------------------------------

 -------------------------------------------------------------------------------
 -                                                                             -
 -                                GRID STATISTICS                              -
 -                                                                             -
 -------------------------------------------------------------------------------
 LP    KERNEL             BACKEND                              COUNT     PERCENT
 3     collocate ortho    GPU                               47330301      24.31%
 3     integrate ortho    GPU                               47108559      24.19%
 2     collocate ortho    GPU                               30809775      15.82%
 2     integrate ortho    GPU                               30396231      15.61%
 4     integrate ortho    GPU                               19583650      10.06%
 4     collocate ortho    GPU                               19206166       9.86%
 5     integrate ortho    GPU                                 257802       0.13%
 0     collocate general  REF                                   8096       0.00%
 1     integrate general  REF                                   8096       0.00%
 -------------------------------------------------------------------------------

 MEMORY| Estimated peak process memory [MiB]                                2168

 -------------------------------------------------------------------------------
 -                                                                             -
 -                         MESSAGE PASSING PERFORMANCE                         -
 -                                                                             -
 -------------------------------------------------------------------------------

 ROUTINE             CALLS      AVE VOLUME [Bytes]
 MP_Group                8
 MP_Bcast             9802                9235028.
 MP_Allreduce         4851                   8820.
 MP_Sync               133
 MP_Alltoall          2897               56699571.
 MP_SendRecv           872                  72198.
 MP_ISendRecv         8940                 119232.
 MP_Wait             22926
 MP_comm_split          62
 MP_ISend            12162                1187162.
 MP_IRecv            12160                1187249.
 MP_Recv                80                 561408.
 -------------------------------------------------------------------------------


 -------------------------------------------------------------------------------
 -                                                                             -
 -                           R E F E R E N C E S                               -
 -                                                                             -
 -------------------------------------------------------------------------------
 
 CP2K version 8.2, the CP2K developers group (2021).
 CP2K is freely available from https://www.cp2k.org/ .

 Kuehne,Thomas D.; Iannuzzi,Marcella; Del Ben,Mauro;
 Rybkin,Vladimir V.; Seewald,Patrick; Stein,Frederick; Laino,Teodoro;
 Khaliullin,Rustam Z.; Schuett,Ole; Schiffmann,Florian; Golze,Dorothea;
 Wilhelm,Jan; Chulkov,Sergey; Bani-Hashemian,Mohammad Hossein;
 Weber,Valery; Borstnik,Urban; Taillefumier,Mathieu;
 Jakobovits,Alice Shoshana; Lazzaro,Alfio; Pabst,Hans; Mueller,Tiziano;
 Schade,Robert; Guidon,Manuel; Andermatt,Samuel; Holmberg,Nico;
 Schenter,Gregory K.; Hehn,Anna; Bussy,Augustin; Belleflamme,Fabian;
 Tabacchi,Gloria; Gloess,Andreas; Lass,Michael; Bethune,Iain;
 Mundy,Christopher J.; Plessl,Christian; Watkins,Matt;
 VandeVondele,Joost; Krack,Matthias; Hutter,Juerg. 
 The Journal of Chemical Physics, 152 (19), (2020). 
 CP2K: An electronic structure and molecular dynamics software package -
 Quickstep: Efficient and accurate electronic structure calculations.
 https://doi.org/10.1063/5.0007045

 Schuett, Ole; Messmer, Peter; Hutter, Juerg; VandeVondele, Joost. 
 Electronic Structure Calculations on Graphics Processing Units, John
 Wiley & Sons, Ltd, 173-190 (2016). 
 GPU-Accelerated Sparse Matrix-Matrix Multiplication for
 Linear Scaling Density Functional Theory.
 https://doi.org/10.1002/9781118670712.ch8

 Heinecke, A; Henry, G; Hutchinson, M; Pabst, H. 
 Proceedings of Intl. Supercomputing Conference, 981-991 (2016). 
 LIBXSMM: Accelerating Small Matrix Multiplications
 by Runtime Code Generation.
 https://doi.org/10.1109/SC.2016.83

 Borstnik, U; VandeVondele, J; Weber, V; Hutter, J. 
 PARALLEL COMPUTING, 40 (5-6), 47-58 (2014). 
 Sparse matrix multiplication: The distributed block-compressed sparse
 row library.
 https://doi.org/10.1016/j.parco.2014.03.012

 Hutter, J; Iannuzzi, M; Schiffmann, F; VandeVondele, J. 
 WIREs Comput Mol Sci., 4 (1), 15-25 (2014). 
 CP2K: atomistic simulations of condensed matter systems.
 https://doi.org/10.1002/wcms.1159

 Marek, A; Blum, V; Johanni, R; Havu, V; Lang, B; Auckenthaler, T;
 Heinecke, A; Bungartz, H; Lederer, H. 
 Journal of Physics: Condensed Matter, 26 (21), (2014). 
 The ELPA library: scalable parallel eigenvalue solutions for
 electronic structure
 theory and computational science.
 https://doi.org/10.1088/0953-8984/26/21/213201

 VandeVondele, J; Hutter, J. 
 JOURNAL OF CHEMICAL PHYSICS, 127 (11), 114105 (2007). 
 Gaussian basis sets for accurate calculations on molecular systems in
 gas and condensed phases.
 https://doi.org/10.1063/1.2770708

 Kuhne, TD; Krack, M; Mohamed, FR; Parrinello, M. 
 PHYSICAL REVIEW LETTERS, 98 (6), 066401 (2007). 
 Efficient and accurate Car-Parrinello-like approach to
 Born-Oppenheimer molecular dynamics.
 https://doi.org/10.1103/PhysRevLett.98.066401

 Laino, T; Mohamed, F; Laio, A; Parrinello, M. 
 JOURNAL OF CHEMICAL THEORY AND COMPUTATION, 2 (5), 1370-1378 (2006). 
 An efficient linear-scaling electrostatic coupling for treating
 periodic boundary conditions in QM/MM simulations.
 https://doi.org/10.1021/ct6001169

 Laino, T; Mohamed, F; Laio, A; Parrinello, M. 
 JOURNAL OF CHEMICAL THEORY AND COMPUTATION, 1 (6), 1176-1184 (2005). 
 An efficient real space multigrid QM/MM electrostatic coupling.
 https://doi.org/10.1021/ct050123f

 Krack, M. 
 THEORETICAL CHEMISTRY ACCOUNTS, 114 (1-3), 145-152 (2005). 
 Pseudopotentials for H to Kr optimized for gradient-corrected
 exchange-correlation functionals.
 https://doi.org/10.1007/s00214-005-0655-y

 VandeVondele, J; Krack, M; Mohamed, F; Parrinello, M; Chassaing, T;
 Hutter, J. COMPUTER PHYSICS COMMUNICATIONS, 167 (2), 103-128 (2005). 
 QUICKSTEP: Fast and accurate density functional calculations using a
 mixed Gaussian and plane waves approach.
 https://doi.org/10.1016/j.cpc.2004.12.014

 Frigo, M; Johnson, SG. 
 PROCEEDINGS OF THE IEEE, 93 (2), 216-231 (2005). 
 The design and implementation of FFTW3.
 https://doi.org/10.1109/JPROC.2004.840301

 Kolafa, J. 
 JOURNAL OF COMPUTATIONAL CHEMISTRY, 25 (3), 335-342 (2004). 
 Time-reversible always stable predictor-corrector method for molecular dynamics of polarizable molecules.
 https://doi.org/10.1002/jcc.10385

 VandeVondele, J; Hutter, J. 
 JOURNAL OF CHEMICAL PHYSICS, 118 (10), 4365-4369 (2003). 
 An efficient orbital transformation method for electronic structure
 calculations.
 https://doi.org/10.1063/1.1543154

 Hartwigsen, C; Goedecker, S; Hutter, J. 
 PHYSICAL REVIEW B, 58 (7), 3641-3662 (1998). 
 Relativistic separable dual-space Gaussian pseudopotentials from H to Rn.
 https://doi.org/10.1103/PhysRevB.58.3641

 Lippert, G; Hutter, J; Parrinello, M. 
 MOLECULAR PHYSICS, 92 (3), 477-487 (1997). 
 A hybrid Gaussian and plane wave density functional scheme.
 https://doi.org/10.1080/002689797170220

 Goedecker, S; Teter, M; Hutter, J. 
 PHYSICAL REVIEW B, 54 (3), 1703-1710 (1996). 
 Separable dual-space Gaussian pseudopotentials.
 https://doi.org/10.1103/PhysRevB.54.1703

 ESSMANN, U; PERERA, L; BERKOWITZ, ML; DARDEN, T; LEE, H; PEDERSEN, LG. 
 JOURNAL OF CHEMICAL PHYSICS, 103 (19), 8577-8593 (1995). 
 A SMOOTH PARTICLE MESH EWALD METHOD.
 https://doi.org/10.1063/1.470117

 BLOCHL, PE. 
 JOURNAL OF CHEMICAL PHYSICS, 103 (17), 7422-7428 (1995). 
 ELECTROSTATIC DECOUPLING OF PERIODIC IMAGES OF PLANE-WAVE-EXPANDED
 DENSITIES AND DERIVED ATOMIC POINT CHARGES.
 https://doi.org/10.1063/1.470314

 BECKE, AD. PHYSICAL REVIEW A, 38 (6), 3098-3100 (1988). 
 DENSITY-FUNCTIONAL EXCHANGE-ENERGY APPROXIMATION WITH CORRECT
 ASYMPTOTIC-BEHAVIOR.
 https://doi.org/10.1103/PhysRevA.38.3098

 LEE, CT; YANG, WT; PARR, RG. 
 PHYSICAL REVIEW B, 37 (2), 785-789 (1988). 
 DEVELOPMENT OF THE COLLE-SALVETTI CORRELATION-ENERGY FORMULA INTO A
 FUNCTIONAL OF THE ELECTRON-DENSITY.
 https://doi.org/10.1103/PhysRevB.37.785


 -------------------------------------------------------------------------------
 -                                                                             -
 -                                T I M I N G                                  -
 -                                                                             -
 -------------------------------------------------------------------------------
 SUBROUTINE                       CALLS  ASD         SELF TIME        TOTAL TIME
                                MAXIMUM       AVERAGE  MAXIMUM  AVERAGE  MAXIMUM
 CP2K                                 1  1.0    0.266    0.306  302.827  302.829
 qs_mol_dyn_low                       1  2.0    0.033    0.062  242.950  244.305
 qs_forces                            2  3.5    0.003    0.012  168.579  168.581
 qs_energies                          2  4.5    0.000    0.000  165.624  165.629
 scf_env_do_scf                       2  5.5    0.000    0.000  155.370  155.370
 scf_env_do_scf_inner_loop          147  6.2    0.003    0.008  148.048  148.058
 rebuild_ks_matrix                  149  8.2    0.001    0.001  103.071  103.398
 qs_ks_build_kohn_sham_matrix       149  9.2    0.019    0.021  103.070  103.398
 qs_ks_update_qs_env                149  7.2    0.001    0.002  100.809  101.131
 velocity_verlet                      1  3.0    0.005    0.006   70.306   70.333
 pw_transfer                       3002 11.9    0.198    0.231   66.816   67.811
 fft_wrap_pw1pw2                   2545 12.9    0.026    0.031   65.904   66.952
 fft_wrap_pw1pw2_150               1643 14.1    0.008    0.010   62.095   63.353
 qmmm_env_create                      1  2.0    7.310    7.554   58.141   58.147
 qs_vxc_create                      149 10.2    0.003    0.004   49.712   49.807
 xc_vxc_pw_create                   149 11.2    1.555    1.633   49.709   49.805
 qmmm_el_coupling                     2  3.5    0.000    0.000   45.505   45.519
 qmmm_elec_with_gaussian              2  4.5    0.005    0.006   45.504   45.518
 fist_init                            1  3.0    0.002    0.005   45.372   45.395
 qmmm_elec_with_gaussian_low          2  5.5    0.000    0.000   39.834   44.998
 pw_cuda_c1dr3d_3d_ps              1349 15.5    0.023    0.028   35.301   36.539
 dbcsr_multiply_generic            3127 12.4    0.130    0.139   33.148   35.018
 qmmm_elec_gaussian_low_G             2  6.5   31.645   34.390   31.645   34.390
 pw_cuda_r3dc1d_3d_ps              1196 14.3    0.023    0.026   30.567   31.682
 multiply_cannon                   3127 13.4    0.524    0.566   24.395   30.656
 multiply_cannon_loop              3127 14.4    0.343    0.376   22.872   29.136
 force_field_control                  1  4.0    0.002    0.009   27.785   28.195
 qs_rho_update_rho                  149  7.2    0.001    0.001   24.598   25.423
 calculate_rho_elec                 149  8.2    1.129    1.133   24.597   25.422
 qs_scf_new_mos                     147  7.2    0.001    0.001   24.995   25.420
 qs_scf_loop_do_ot                  147  8.2    0.001    0.001   24.994   25.419
 rdparm_amber_8                       2  6.5   21.045   21.471   24.715   24.773
 mp_alltoall_z22v                  2545 16.9   18.944   23.947   18.944   23.947
 xc_rho_set_and_dset_create         149 12.2    1.502    1.628   23.264   23.937
 sum_up_and_integrate               149 10.2    0.424    0.464   23.390   23.469
 ot_scf_mini                        147  9.2    0.003    0.003   23.103   23.285
 integrate_v_rspace                 149 11.2    0.004    0.005   22.966   23.066
 multiply_cannon_multrec          12508 15.4    4.799    8.874   14.052   21.551
 qs_ks_ddapc                        149 10.2    0.002    0.002   19.307   19.616
 x_to_yz                           1349 16.5    7.902    9.928   17.488   19.387
 density_rs2pw                      149  9.2    0.006    0.006   18.442   18.996
 qmmm_forces                          2  3.5    0.008    0.010   17.883   17.885
 qmmm_forces_with_gaussian            2  4.5    0.011    0.014   14.553   17.690
 topology_control                     1  4.0    0.000    0.001   16.815   17.178
 qmmm_force_with_gaussian_low         2  5.5    0.000    0.000   13.888   17.025
 ot_mini                            147 10.2    0.001    0.001   16.503   16.691
 force_field_pack                     1  5.0    0.016    0.017   15.095   15.467
 yz_to_x                           1196 15.3    4.615    5.759   13.973   15.096
 dbcsr_mm_accdrv_process          37120 16.0    8.207   12.948    9.003   13.665
 cp_ddapc_apply_CD                  149 11.2    0.018    0.209   13.577   13.577
 potential_pw2rs                    149 12.2    0.048    0.055   13.165   13.237
 connectivity_control                 2  4.0    0.000    0.001   12.849   12.864
 read_force_field_amber               1  5.0    0.004    0.005   12.619   12.678
 read_connectivity_amber              1  6.0    0.000    0.000   12.100   12.103
 pw_cuda_fg                        1196 15.3   10.103   11.735   10.103   11.735
 rs_pw_transfer                    1204 11.7    0.016    0.018   10.945   11.568
 qmmm_forces_gaussian_low_R           2  6.5    0.000    0.000    9.093   11.562
 qmmm_forces_with_gaussian_LG         2  7.5    9.092   11.562    9.092   11.562
 mp_waitall_1                    160860 16.4    8.507   11.300    8.507   11.300
 pw_cuda_sf                        1349 16.5   10.364   11.271   10.364   11.271
 qs_ot_get_derivative               147 11.2    0.001    0.001   10.846   11.025
 qmmm_elec_gaussian_low_R             2  6.5    0.000    0.000    8.189   10.712
 qmmm_elec_with_gaussian_LG           2  7.5    8.189   10.712    8.189   10.712
 force_field_pack_ub                  1  6.0    9.589    9.738    9.589    9.738
 grid_integrate_task_list           149 12.2    7.507    9.547    7.507    9.547
 mp_sum_d                          4980 10.9    6.115    9.268    6.115    9.268
 fist_calc_energy_force               2  3.5    0.032    0.152    9.102    9.121
 pw_integral_ab                    1331  8.3    6.780    7.058    8.322    9.088
 pw_cuda_ffc                       1349 16.5    7.404    8.411    7.404    8.411
 mp_sync                            133 14.3    5.239    7.878    5.239    7.878
 mp_sum_l                          9652 13.0    5.192    7.485    5.192    7.485
 init_scf_loop                        2  6.5    0.000    0.000    7.309    7.309
 init_scf_run                         2  5.5    0.000    0.000    6.830    6.830
 scf_env_initial_rho_setup            2  6.5    0.000    0.000    6.830    6.830
 multiply_cannon_metrocomm1       12508 15.4    0.024    0.024    3.497    6.778
 pw_cuda_cff                       1196 15.3    6.417    6.774    6.417    6.774
 mp_waitany                       12160 13.6    5.440    6.567    5.440    6.567
 calculate_dm_sparse                149  9.2    0.001    0.001    5.413    6.509
 calculate_first_density_matrix       1  7.0    0.000    0.000    5.600    6.419
 -------------------------------------------------------------------------------

 The number of warnings for this run is : 0
 
 -------------------------------------------------------------------------------
  **** **** ******  **  PROGRAM ENDED AT                 2021-07-26 13:49:08.397
 ***** ** ***  *** **   PROGRAM RAN ON                                    r2i7n1
 **    ****   ******    PROGRAM RAN BY                                    hollyj
 ***** **    ** ** **   PROGRAM PROCESS ID                                 19191
  **** **  *******  **  PROGRAM STOPPED IN /lustre/home/w68/hollyj/CP2K/Cirrus/G
                                           PU/cp2kMD/ClC-253-BLYP/1STEPS/4NODES/
                                           36CPN/10THREADS
