 DBCSR| CPU Multiplication driver                                           XSMM
 DBCSR| Multrec recursion limit                                              512
 DBCSR| Multiplication stack size                                          30000
 DBCSR| Maximum elements for images                                    UNLIMITED
 DBCSR| Multiplicative factor virtual images                                   1
 DBCSR| Use multiplication densification                                       F
 DBCSR| Multiplication size stacks                                             3
 DBCSR| Use memory pool for CPU allocation                                     F
 DBCSR| Number of 3D layers                                               SINGLE
 DBCSR| Use MPI memory allocation                                              F
 DBCSR| Use RMA algorithm                                                      F
 DBCSR| Use Communication thread                                               T
 DBCSR| Communication thread load                                             53
 DBCSR| MPI: My node id                                                        0
 DBCSR| MPI: Number of nodes                                                  32
 DBCSR| OMP: Current number of threads                                        10
 DBCSR| OMP: Max number of threads                                            10
 DBCSR| ACC: Number of devices/node                                            4
 DBCSR| ACC: Number of priority stack-buffers                                 40
 DBCSR| ACC: Number of posterior stack-buffers                                80
 DBCSR| ACC: Number of priority streams                                        4
 DBCSR| ACC: Number of posterior streams                                       4
 DBCSR| ACC: Avoid driver after busy                                           F
 DBCSR| ACC: Process inhomogeneous stacks                                      T
 DBCSR| ACC: Min. flop for processing                                          0
 DBCSR| ACC: Min. flop for sorting                                          4000
 DBCSR| ACC: Number of binning bins                                         4096
 DBCSR| ACC: Size of binning bins                                             16
 DBCSR| Split modifier for TAS multiplication algorithm                  1.0E+00


  **** **** ******  **  PROGRAM STARTED AT               2021-07-26 14:33:55.203
 ***** ** ***  *** **   PROGRAM STARTED ON                                r2i4n0
 **    ****   ******    PROGRAM STARTED BY                                hollyj
 ***** **    ** ** **   PROGRAM PROCESS ID                                 66784
  **** **  *******  **  PROGRAM STARTED IN /lustre/home/w68/hollyj/CP2K/Cirrus/G
                                           PU/cp2kMD/ClC-253-BLYP/6STEPS/8NODES/
                                           36CPN/10THREADS

 CP2K| version string:                                          CP2K version 8.2
 CP2K| source code revision number:                                  git:310b7ab
 CP2K| cp2kflags: omp libint fftw3 libxc elpa parallel mpi3 scalapack cosma pw_c
 CP2K|            uda xsmm cuda_profiling dbcsr_acc spglib mkl grid_cuda
 CP2K| is freely available from                            https://www.cp2k.org/
 CP2K| Program compiled at                          Thu Jul 22 18:07:58 BST 2021
 CP2K| Program compiled on                                                r2i5n7
 CP2K| Program compiled for                                           Cirrus-gcc
 CP2K| Data directory path       /lustre/home/w68/hollyj/CP2K/v8.2/cp2k-8.2/data
 CP2K| Input file name                                          ClC-253-cp2k.inp

 GLOBAL| Force Environment number                                              1
 GLOBAL| Basis set file name                                        BASIS_MOLOPT
 GLOBAL| Potential file name                                           POTENTIAL
 GLOBAL| MM Potential file name                                     MM_POTENTIAL
 GLOBAL| Coordinate file name                                            ClC.pdb
 GLOBAL| Method name                                                        CP2K
 GLOBAL| Project name                                               ClC-253-BLYP
 GLOBAL| Run type                                                             MD
 GLOBAL| FFT library                                                       FFTW3
 GLOBAL| Diagonalization library                                            ELPA
 GLOBAL| Minimum number of eigenvectors for ELPA usage                        16
 GLOBAL| Orthonormality check for eigenvectors                          DISABLED
 GLOBAL| Matrix multiplication library                                     COSMA
 GLOBAL| All-to-all communication in single precision                          F
 GLOBAL| FFTs using library dependent lengths                                  F
 GLOBAL| Grid backend                                                       AUTO
 GLOBAL| Global print level                                                  LOW
 GLOBAL| MPI I/O enabled                                                       T
 GLOBAL| Total number of message passing processes                            32
 GLOBAL| Number of threads for this process                                   10
 GLOBAL| This output is from process                                           0
 GLOBAL| CPU model name                 Intel(R) Xeon(R) Gold 6248 CPU @ 2.50GHz
 GLOBAL| CPUID                                                              1003

 MEMORY| system memory details [Kb]
 MEMORY|                        rank 0           min           max       average
 MEMORY| MemTotal            394535408     394535408     394535408     394535408
 MEMORY| MemFree             387267400     387231448     387595672     387452695
 MEMORY| Buffers                     0             0             0             0
 MEMORY| Cached                1047680        847864       1047680        921516
 MEMORY| Slab                   954544        849416        954544        907336
 MEMORY| SReclaimable           170832        153440        171680        165409
 MEMORY| MemLikelyFree       388485912     388301820     388679276     388539621



                      ************* ******** ***********   
                     ************* **********************  
                     ****     **** ****      ***********   
                     ******** ****  *******     ****       
                     *******  ****   *******   ****        
                     ****     ****       ****  ****        
                     ****     **** **********  ****        
                      ****     **** ********    ****       
                     FRONTIERS IN SIMULATION TECHNOLOGY    
                                                           
                        C.J. Mundy, S. Balasubramanian,    
                     Ken Bagchi, J. Hutter, Ari Seitsonen  
                      IFW Kuo, T. Laino, J. VandeVondele   
                                 Version 1.0               

                                                           


 EWALD| Summation is done by:                                               SPME
 EWALD| Alpha parameter [       ANGSTROM^-1]                              0.4000
 EWALD| Real Space Cutoff [          ANGSTROM]                            8.4348
 EWALD| G-space max. Miller index                         80        80        80
 EWALD| Spline interpolation order                                             6

 FORCEFIELD| WARNING: A non Critical ForceField parameter is missing! CP2K GOES!
 FORCEFIELD| Non critical parameters are:Urey-Bradley,Torsions,Impropers, Opbends and 1-4
 FORCEFIELD| All missing parameters will not contribute to the potential energy!
 FORCEFIELD| Activate the print key FF_INFO to have a list of missing parameters

 CHARGE_INFO| Total Charge of the Classical System:                     2.369895

 SPLINE_INFO| Generating 85491 splines for NONBONDED14 interactions 
              Due to 413 different atomic kinds
  ...8549  ...17098  ...25647  ...34196  ...42745  ...51294  ...59843  ...68392  ...76941  ...85490
 SPLINE_INFO| Number of unique splines computed:            254
 SPLINE_INFO| Done

 SPLINE_INFO| Generating 85491 splines for NONBONDED interactions 
              Due to 413 different atomic kinds
  ...8549  ...17098  ...25647  ...34196  ...42745  ...51294  ...59843  ...68392  ...76941  ...85490
 SPLINE_INFO| Number of unique splines computed:            254
 SPLINE_INFO| Done

 *******************************************************************************
 *******************************************************************************
 **                                                                           **
 **     #####                         ##              ##                      **
 **    ##   ##            ##          ##              ##                      **
 **   ##     ##                       ##            ######                    **
 **   ##     ##  ##   ##  ##   #####  ##  ##   ####   ##    #####    #####    **
 **   ##     ##  ##   ##  ##  ##      ## ##   ##      ##   ##   ##  ##   ##   **
 **   ##  ## ##  ##   ##  ##  ##      ####     ###    ##   ######   ######    **
 **    ##  ###   ##   ##  ##  ##      ## ##      ##   ##   ##       ##        **
 **     #######   #####   ##   #####  ##  ##  ####    ##    #####   ##        **
 **           ##                                                    ##        **
 **                                                                           **
 **                                                ... make the atoms dance   **
 **                                                                           **
 **            Copyright (C) by CP2K developers group (2000-2021)             **
 **                      J. Chem. Phys. 152, 194103 (2020)                    **
 **                                                                           **
 *******************************************************************************


 TOTAL NUMBERS AND MAXIMUM NUMBERS

  Total number of            - Atomic kinds:                                   6
                             - Atoms:                                        253
                             - Shell sets:                                   253
                             - Shells:                                       991
                             - Primitive Cartesian functions:               1770
                             - Cartesian basis functions:                   2309
                             - Spherical basis functions:                   2193

  Maximum angular momentum of- Orbital basis functions:                        2
                             - Local part of the GTH pseudopotential:          2
                             - Non-local part of the GTH pseudopotential:      2


 SCF PARAMETERS         Density guess:                                   RESTART
                        --------------------------------------------------------
                        max_scf:                                             300
                        max_scf_history:                                       0
                        max_diis:                                              4
                        --------------------------------------------------------
                        eps_scf:                                        1.00E-06
                        eps_scf_history:                                0.00E+00
                        eps_diis:                                       1.00E-01
                        eps_eigval:                                     1.00E-05
                        --------------------------------------------------------
                        level_shift [a.u.]:                                 0.00
                        --------------------------------------------------------
                        No outer SCF

 *******************************************************************************
 *******************************************************************************
 **                                                                           **
 **             #######  ##     ## ##     ## ##     ##                        **
 **            ##     ## ###   ### ###   ### ###   ###                        **
 **            ##     ## #### #### #### #### #### ####                        **
 **            ##     ## ## ### ## ## ### ## ## ### ##                        **
 **            ##  ## ## ##     ## ##     ## ##     ##                        **
 **            ##    ##  ##     ## ##     ## ##     ##  T.Laino and F.Mohamed **
 **             ##### ## ##     ## ##     ## ##     ##  2005 - 2015           **
 **                                                                           **
 **                                                     Calculation Started.. **
 *******************************************************************************
 *******************************************************************************

 MD_PAR| Molecular dynamics protocol (MD input parameters)
 MD_PAR| Ensemble type                                                       NVE
 MD_PAR| Number of time steps                                                  6
 MD_PAR| Time step [fs]                                                 1.000000
 MD_PAR| Temperature [K]                                              300.000000
 MD_PAR| Temperature tolerance [K]                                      0.000000
 MD_PAR| Print MD information every                                    1 step(s)
 MD_PAR| File type   Print frequency [steps]                          File names
 MD_PAR| Coordinates          1                           ClC-253-BLYP-pos-1.xyz
 MD_PAR| Velocities           1                           ClC-253-BLYP-vel-1.xyz
 MD_PAR| Energies             1                              ClC-253-BLYP-1.ener
 MD_PAR| Dump                20                           ClC-253-BLYP-1.restart

 ROT| Rotational analysis information
 ROT| Principal axes and moments of inertia [a.u.]
 ROT|                           1                   2                   3
 ROT| Eigenvalues      6.49908278768+119   9.69266118148+120   9.76757630270+120
 ROT|      x              0.966767624107     -0.244635852463     -0.074254027960
 ROT|      y             -0.214972405609     -0.620674029844     -0.754022952902
 ROT|      z             -0.138373501094     -0.744927545716      0.652637514880
 ROT| Number of rotovibrational vectors                                        6

 DOF| Calculation of degrees of freedom
 DOF| Number of atoms                                                     150925
 DOF| Number of intramolecular constraints                                     0
 DOF| Number of intermolecular constraints                                     0
 DOF| Invariants (translations + rotations)                                    3
 DOF| Degrees of freedom                                                  452772

 DOF| Restraints information
 DOF| Number of intramolecular restraints                                      0
 DOF| Number of intermolecular restraints                                      0

 MD_VEL| Velocities initialization
 MD_VEL| Initial temperature [K]                                      300.000000
 MD_VEL| COM velocity            -0.0000000000     0.0000000000     0.0000000000

  Translating the system in order to center the QM fragment in the QM box.

 Number of electrons:                                                        654
 Number of occupied orbitals:                                                327
 Number of molecular orbitals:                                               327

 Number of orbital functions:                                               2193
 Number of independent orbital functions:                                   2193

 Extrapolation method: initial_guess


 SCF WAVEFUNCTION OPTIMIZATION

  ----------------------------------- OT ---------------------------------------
  Minimizer      : DIIS                : direct inversion
                                         in the iterative subspace
                                         using   7 DIIS vectors
                                         safer DIIS on
  Preconditioner : FULL_ALL            : diagonalization, state selective
  Precond_solver : DEFAULT
  stepsize       :    0.15000000                  energy_gap     :    0.08000000
  eps_taylor     :   0.10000E-15                  max_taylor     :             4
  ----------------------------------- OT ---------------------------------------

  Step     Update method      Time    Convergence         Total energy    Change
  ------------------------------------------------------------------------------
  Decoupling Energy:                                               0.0674872996
  Recoupling Energy:                                              -0.0068222234
     1 OT DIIS     0.15E+00    7.2     0.00001627     -1098.7913677411 -1.10E+03
  Decoupling Energy:                                               0.0674861058
  Recoupling Energy:                                              -0.0068221797
     2 OT DIIS     0.15E+00    0.7     0.00000900     -1098.7913888938 -2.12E-05
  Decoupling Energy:                                               0.0674950603
  Recoupling Energy:                                              -0.0068223087
     3 OT DIIS     0.15E+00    0.8     0.00001460     -1098.7913964549 -7.56E-06
  Decoupling Energy:                                               0.0674896965
  Recoupling Energy:                                              -0.0068222498
     4 OT DIIS     0.15E+00    0.7     0.00000626     -1098.7913998880 -3.43E-06
  Decoupling Energy:                                               0.0674872278
  Recoupling Energy:                                              -0.0068222035
     5 OT DIIS     0.15E+00    0.7     0.00000578     -1098.7914020837 -2.20E-06
  Decoupling Energy:                                               0.0674888303
  Recoupling Energy:                                              -0.0068221999
     6 OT DIIS     0.15E+00    0.7     0.00000580     -1098.7914084634 -6.38E-06
  Decoupling Energy:                                               0.0674891663
  Recoupling Energy:                                              -0.0068222222
     7 OT DIIS     0.15E+00    0.7     0.00000561     -1098.7914167881 -8.32E-06
  Decoupling Energy:                                               0.0674892940
  Recoupling Energy:                                              -0.0068222412
     8 OT DIIS     0.15E+00    0.7     0.00000524     -1098.7914221585 -5.37E-06
  Decoupling Energy:                                               0.0674881907
  Recoupling Energy:                                              -0.0068221895
     9 OT DIIS     0.15E+00    0.7     0.00000516     -1098.7914280315 -5.87E-06
  Decoupling Energy:                                               0.0674891068
  Recoupling Energy:                                              -0.0068222186
    10 OT DIIS     0.15E+00    0.7     0.00000503     -1098.7914326439 -4.61E-06
  Decoupling Energy:                                               0.0674910255
  Recoupling Energy:                                              -0.0068222409
    11 OT DIIS     0.15E+00    0.7     0.00000505     -1098.7914451574 -1.25E-05
  Decoupling Energy:                                               0.0674893445
  Recoupling Energy:                                              -0.0068222092
    12 OT DIIS     0.15E+00    0.7     0.00000544     -1098.7914511015 -5.94E-06
  Decoupling Energy:                                               0.0674886192
  Recoupling Energy:                                              -0.0068221746
    13 OT DIIS     0.15E+00    0.7     0.00000506     -1098.7914589353 -7.83E-06
  Decoupling Energy:                                               0.0674897272
  Recoupling Energy:                                              -0.0068221819
    14 OT DIIS     0.15E+00    0.7     0.00000482     -1098.7914634348 -4.50E-06
  Decoupling Energy:                                               0.0674896707
  Recoupling Energy:                                              -0.0068222125
    15 OT DIIS     0.15E+00    0.7     0.00000471     -1098.7914698145 -6.38E-06
  Decoupling Energy:                                               0.0674902115
  Recoupling Energy:                                              -0.0068221925
    16 OT DIIS     0.15E+00    0.7     0.00000482     -1098.7914781062 -8.29E-06
  Decoupling Energy:                                               0.0674901472
  Recoupling Energy:                                              -0.0068221797
    17 OT DIIS     0.15E+00    0.7     0.00000498     -1098.7914886289 -1.05E-05
  Decoupling Energy:                                               0.0674880435
  Recoupling Energy:                                              -0.0068221048
    18 OT DIIS     0.15E+00    0.7     0.00000526     -1098.7915022664 -1.36E-05
  Decoupling Energy:                                               0.0674897586
  Recoupling Energy:                                              -0.0068221785
    19 OT DIIS     0.15E+00    0.7     0.00000471     -1098.7915055207 -3.25E-06
  Decoupling Energy:                                               0.0674872475
  Recoupling Energy:                                              -0.0068220953
    20 OT DIIS     0.15E+00    0.7     0.00000508     -1098.7915154560 -9.94E-06
  Decoupling Energy:                                               0.0674906167
  Recoupling Energy:                                              -0.0068222473
    21 OT DIIS     0.15E+00    0.7     0.00000457     -1098.7915235632 -8.11E-06
  Decoupling Energy:                                               0.0674882094
  Recoupling Energy:                                              -0.0068221454
    22 OT DIIS     0.15E+00    0.7     0.00000473     -1098.7915323917 -8.83E-06
  Decoupling Energy:                                               0.0674847826
  Recoupling Energy:                                              -0.0068220505
    23 OT DIIS     0.15E+00    0.7     0.00000542     -1098.7915548570 -2.25E-05
  Decoupling Energy:                                               0.0674699959
  Recoupling Energy:                                              -0.0068215480
    24 OT DIIS     0.15E+00    0.7     0.00001418     -1098.7915841560 -2.93E-05
  Decoupling Energy:                                               0.0674739933
  Recoupling Energy:                                              -0.0068217824
    25 OT SD       0.15E+00    0.7     0.00000724     -1098.7915868327 -2.68E-06
  Decoupling Energy:                                               0.0674836505
  Recoupling Energy:                                              -0.0068222788
    26 OT SD       0.15E+00    0.7     0.00001712     -1098.7915858285  1.00E-06
  Decoupling Energy:                                               0.0674808642
  Recoupling Energy:                                              -0.0068216362
    27 OT DIIS     0.15E+00    0.7     0.00005727     -1098.7915520468  3.38E-05
  Decoupling Energy:                                               0.0674947417
  Recoupling Energy:                                              -0.0068224728
    28 OT DIIS     0.15E+00    0.7     0.00000821     -1098.7915724252 -2.04E-05
  Decoupling Energy:                                               0.0674768507
  Recoupling Energy:                                              -0.0068218846
    29 OT DIIS     0.15E+00    0.7     0.00000539     -1098.7915985535 -2.61E-05
  Decoupling Energy:                                               0.0674835214
  Recoupling Energy:                                              -0.0068221007
    30 OT SD       0.15E+00    0.7     0.00000463     -1098.7916040725 -5.52E-06
  Decoupling Energy:                                               0.0674810456
  Recoupling Energy:                                              -0.0068220181
    31 OT DIIS     0.15E+00    0.7     0.00000894     -1098.7916049463 -8.74E-07
  Decoupling Energy:                                               0.0674855074
  Recoupling Energy:                                              -0.0068221340
    32 OT SD       0.15E+00    0.7     0.00000392     -1098.7916135978 -8.65E-06
  Decoupling Energy:                                               0.0674890623
  Recoupling Energy:                                              -0.0068222227
    33 OT DIIS     0.15E+00    0.7     0.00000540     -1098.7916148951 -1.30E-06
  Decoupling Energy:                                               0.0674876840
  Recoupling Energy:                                              -0.0068221546
    34 OT DIIS     0.15E+00    0.7     0.00000373     -1098.7916208254 -5.93E-06
  Decoupling Energy:                                               0.0674877213
  Recoupling Energy:                                              -0.0068221785
    35 OT DIIS     0.15E+00    0.7     0.00000370     -1098.7916231370 -2.31E-06
  Decoupling Energy:                                               0.0674875505
  Recoupling Energy:                                              -0.0068221509
    36 OT DIIS     0.15E+00    0.7     0.00000400     -1098.7916341155 -1.10E-05
  Decoupling Energy:                                               0.0674875255
  Recoupling Energy:                                              -0.0068221469
    37 OT DIIS     0.15E+00    0.7     0.00000377     -1098.7916392175 -5.10E-06
  Decoupling Energy:                                               0.0674846560
  Recoupling Energy:                                              -0.0068220695
    38 OT SD       0.15E+00    0.7     0.00000380     -1098.7916448029 -5.59E-06
  Decoupling Energy:                                               0.0674855381
  Recoupling Energy:                                              -0.0068221506
    39 OT DIIS     0.15E+00    0.7     0.00000675     -1098.7916456623 -8.59E-07
  Decoupling Energy:                                               0.0674807381
  Recoupling Energy:                                              -0.0068219768
    40 OT SD       0.15E+00    0.7     0.00000454     -1098.7916593298 -1.37E-05
  Decoupling Energy:                                               0.0674769458
  Recoupling Energy:                                              -0.0068219670
    41 OT SD       0.15E+00    0.7     0.00000937     -1098.7916596929 -3.63E-07
  Decoupling Energy:                                               0.0674895012
  Recoupling Energy:                                              -0.0068221138
    42 OT DIIS     0.15E+00    0.7     0.00002997     -1098.7916510973  8.60E-06
  Decoupling Energy:                                               0.0674782357
  Recoupling Energy:                                              -0.0068219392
    43 OT DIIS     0.15E+00    0.7     0.00000365     -1098.7916657044 -1.46E-05
  Decoupling Energy:                                               0.0674784760
  Recoupling Energy:                                              -0.0068219407
    44 OT DIIS     0.15E+00    0.7     0.00000337     -1098.7916710196 -5.32E-06
  Decoupling Energy:                                               0.0674762165
  Recoupling Energy:                                              -0.0068219283
    45 OT DIIS     0.15E+00    0.7     0.00000362     -1098.7916812889 -1.03E-05
  Decoupling Energy:                                               0.0674769520
  Recoupling Energy:                                              -0.0068219474
    46 OT DIIS     0.15E+00    0.7     0.00000327     -1098.7916849593 -3.67E-06
  Decoupling Energy:                                               0.0674741791
  Recoupling Energy:                                              -0.0068218721
    47 OT DIIS     0.15E+00    0.7     0.00000448     -1098.7916952857 -1.03E-05
  Decoupling Energy:                                               0.0674755255
  Recoupling Energy:                                              -0.0068219163
    48 OT DIIS     0.15E+00    0.7     0.00000311     -1098.7916980959 -2.81E-06
  Decoupling Energy:                                               0.0674742304
  Recoupling Energy:                                              -0.0068219045
    49 OT DIIS     0.15E+00    0.7     0.00000553     -1098.7917083173 -1.02E-05
  Decoupling Energy:                                               0.0674775578
  Recoupling Energy:                                              -0.0068219922
    50 OT DIIS     0.15E+00    0.7     0.00000379     -1098.7917138546 -5.54E-06
  Decoupling Energy:                                               0.0674794172
  Recoupling Energy:                                              -0.0068220209
    51 OT DIIS     0.15E+00    0.7     0.00000292     -1098.7917207755 -6.92E-06
  Decoupling Energy:                                               0.0674785962
  Recoupling Energy:                                              -0.0068219592
    52 OT DIIS     0.15E+00    0.7     0.00000418     -1098.7917246135 -3.84E-06
  Decoupling Energy:                                               0.0674806857
  Recoupling Energy:                                              -0.0068220148
    53 OT DIIS     0.15E+00    0.7     0.00000296     -1098.7917268986 -2.29E-06
  Decoupling Energy:                                               0.0674828510
  Recoupling Energy:                                              -0.0068220704
    54 OT DIIS     0.15E+00    0.7     0.00000536     -1098.7917366482 -9.75E-06
  Decoupling Energy:                                               0.0674845457
  Recoupling Energy:                                              -0.0068221027
    55 OT DIIS     0.15E+00    0.7     0.00000312     -1098.7917368524 -2.04E-07
  Decoupling Energy:                                               0.0674881575
  Recoupling Energy:                                              -0.0068221628
    56 OT SD       0.15E+00    0.7     0.00000634     -1098.7917470924 -1.02E-05
  Decoupling Energy:                                               0.0674739783
  Recoupling Energy:                                              -0.0068218352
    57 OT SD       0.15E+00    0.7     0.00001492     -1098.7917455912  1.50E-06
  Decoupling Energy:                                               0.0675039582
  Recoupling Energy:                                              -0.0068225999
    58 OT DIIS     0.15E+00    0.7     0.00004736     -1098.7917175237  2.81E-05
  Decoupling Energy:                                               0.0674835367
  Recoupling Energy:                                              -0.0068220172
    59 OT DIIS     0.15E+00    0.7     0.00000335     -1098.7917459876 -2.85E-05
  Decoupling Energy:                                               0.0674899689
  Recoupling Energy:                                              -0.0068222439
    60 OT DIIS     0.15E+00    0.8     0.00000258     -1098.7917499340 -3.95E-06
  Decoupling Energy:                                               0.0674929383
  Recoupling Energy:                                              -0.0068223217
    61 OT DIIS     0.15E+00    0.8     0.00000395     -1098.7917557392 -5.81E-06
  Decoupling Energy:                                               0.0674936183
  Recoupling Energy:                                              -0.0068223074
    62 OT DIIS     0.15E+00    0.7     0.00000310     -1098.7917584009 -2.66E-06
  Decoupling Energy:                                               0.0674928214
  Recoupling Energy:                                              -0.0068222706
    63 OT SD       0.15E+00    0.8     0.00000252     -1098.7917598038 -1.40E-06
  Decoupling Energy:                                               0.0674896212
  Recoupling Energy:                                              -0.0068222093
    64 OT DIIS     0.15E+00    0.8     0.00000349     -1098.7917602534 -4.50E-07
  Decoupling Energy:                                               0.0674942060
  Recoupling Energy:                                              -0.0068223189
    65 OT DIIS     0.15E+00    0.7     0.00000280     -1098.7917666795 -6.43E-06
  Decoupling Energy:                                               0.0674936667
  Recoupling Energy:                                              -0.0068222776
    66 OT DIIS     0.15E+00    0.8     0.00000303     -1098.7917685153 -1.84E-06
  Decoupling Energy:                                               0.0674963081
  Recoupling Energy:                                              -0.0068223423
    67 OT DIIS     0.15E+00    0.8     0.00000323     -1098.7917735271 -5.01E-06
  Decoupling Energy:                                               0.0674995515
  Recoupling Energy:                                              -0.0068224255
    68 OT SD       0.15E+00    0.7     0.00000371     -1098.7917786254 -5.10E-06
  Decoupling Energy:                                               0.0674871455
  Recoupling Energy:                                              -0.0068220790
    69 OT SD       0.15E+00    0.8     0.00000772     -1098.7917784659  1.60E-07
  Decoupling Energy:                                               0.0675067722
  Recoupling Energy:                                              -0.0068226901
    70 OT DIIS     0.15E+00    0.8     0.00002225     -1098.7917732382  5.23E-06
  Decoupling Energy:                                               0.0674927590
  Recoupling Energy:                                              -0.0068222602
    71 OT DIIS     0.15E+00    0.8     0.00000226     -1098.7917801504 -6.91E-06
  Decoupling Energy:                                               0.0674966065
  Recoupling Energy:                                              -0.0068223555
    72 OT DIIS     0.15E+00    0.7     0.00000256     -1098.7917837932 -3.64E-06
  Decoupling Energy:                                               0.0674997870
  Recoupling Energy:                                              -0.0068224447
    73 OT DIIS     0.15E+00    0.8     0.00000330     -1098.7917896449 -5.85E-06
  Decoupling Energy:                                               0.0675095757
  Recoupling Energy:                                              -0.0068227147
    74 OT DIIS     0.15E+00    0.7     0.00000541     -1098.7917973563 -7.71E-06
  Decoupling Energy:                                               0.0675084213
  Recoupling Energy:                                              -0.0068226650
    75 OT SD       0.15E+00    0.8     0.00000467     -1098.7917993108 -1.95E-06
  Decoupling Energy:                                               0.0674911618
  Recoupling Energy:                                              -0.0068221561
    76 OT SD       0.15E+00    0.7     0.00000995     -1098.7917986297  6.81E-07
  Decoupling Energy:                                               0.0675158996
  Recoupling Energy:                                              -0.0068229845
    77 OT DIIS     0.15E+00    0.8     0.00002850     -1098.7917895919  9.04E-06
  Decoupling Energy:                                               0.0674877802
  Recoupling Energy:                                              -0.0068221437
    78 OT DIIS     0.15E+00    0.8     0.00000330     -1098.7917970927 -7.50E-06
  Decoupling Energy:                                               0.0675000142
  Recoupling Energy:                                              -0.0068224305
    79 OT DIIS     0.15E+00    0.7     0.00000254     -1098.7918009459 -3.85E-06
  Decoupling Energy:                                               0.0674983477
  Recoupling Energy:                                              -0.0068223889
    80 OT DIIS     0.15E+00    0.8     0.00000174     -1098.7918019737 -1.03E-06
  Decoupling Energy:                                               0.0674932311
  Recoupling Energy:                                              -0.0068222609
    81 OT DIIS     0.15E+00    0.7     0.00000154     -1098.7918022738 -3.00E-07
  Decoupling Energy:                                               0.0674931104
  Recoupling Energy:                                              -0.0068222502
    82 OT DIIS     0.15E+00    0.7     0.00000158     -1098.7918030831 -8.09E-07
  Decoupling Energy:                                               0.0674941932
  Recoupling Energy:                                              -0.0068222773
    83 OT DIIS     0.15E+00    0.8     0.00000151     -1098.7918033921 -3.09E-07
  Decoupling Energy:                                               0.0674935290
  Recoupling Energy:                                              -0.0068222462
    84 OT DIIS     0.15E+00    0.8     0.00000146     -1098.7918049100 -1.52E-06
  Decoupling Energy:                                               0.0674921688
  Recoupling Energy:                                              -0.0068222163
    85 OT DIIS     0.15E+00    0.7     0.00000148     -1098.7918052909 -3.81E-07
  Decoupling Energy:                                               0.0674927034
  Recoupling Energy:                                              -0.0068222117
    86 OT DIIS     0.15E+00    0.8     0.00000137     -1098.7918068015 -1.51E-06
  Decoupling Energy:                                               0.0674932283
  Recoupling Energy:                                              -0.0068222212
    87 OT DIIS     0.15E+00    0.8     0.00000137     -1098.7918082009 -1.40E-06
  Decoupling Energy:                                               0.0674932999
  Recoupling Energy:                                              -0.0068222109
    88 OT DIIS     0.15E+00    0.7     0.00000135     -1098.7918094067 -1.21E-06
  Decoupling Energy:                                               0.0674940501
  Recoupling Energy:                                              -0.0068222214
    89 OT DIIS     0.15E+00    0.7     0.00000132     -1098.7918106722 -1.27E-06
  Decoupling Energy:                                               0.0674950600
  Recoupling Energy:                                              -0.0068222481
    90 OT DIIS     0.15E+00    0.7     0.00000135     -1098.7918118265 -1.15E-06
  Decoupling Energy:                                               0.0674958218
  Recoupling Energy:                                              -0.0068222625
    91 OT DIIS     0.15E+00    0.7     0.00000132     -1098.7918127577 -9.31E-07
  Decoupling Energy:                                               0.0674958881
  Recoupling Energy:                                              -0.0068222612
    92 OT DIIS     0.15E+00    0.8     0.00000129     -1098.7918136730 -9.15E-07
  Decoupling Energy:                                               0.0674962667
  Recoupling Energy:                                              -0.0068222797
    93 OT DIIS     0.15E+00    0.8     0.00000142     -1098.7918146214 -9.48E-07
  Decoupling Energy:                                               0.0674997115
  Recoupling Energy:                                              -0.0068223473
    94 OT DIIS     0.15E+00    0.7     0.00000146     -1098.7918163449 -1.72E-06
  Decoupling Energy:                                               0.0675001544
  Recoupling Energy:                                              -0.0068223567
    95 OT DIIS     0.15E+00    0.7     0.00000139     -1098.7918170170 -6.72E-07
  Decoupling Energy:                                               0.0674986146
  Recoupling Energy:                                              -0.0068223210
    96 OT DIIS     0.15E+00    0.7     0.00000126     -1098.7918177269 -7.10E-07
  Decoupling Energy:                                               0.0675042031
  Recoupling Energy:                                              -0.0068224455
    97 OT DIIS     0.15E+00    0.7     0.00000172     -1098.7918202518 -2.52E-06
  Decoupling Energy:                                               0.0675025060
  Recoupling Energy:                                              -0.0068223934
    98 OT DIIS     0.15E+00    0.8     0.00000131     -1098.7918219845 -1.73E-06
  Decoupling Energy:                                               0.0675113622
  Recoupling Energy:                                              -0.0068225885
    99 OT DIIS     0.15E+00    0.8     0.00000250     -1098.7918252655 -3.28E-06
  Decoupling Energy:                                               0.0675135573
  Recoupling Energy:                                              -0.0068226239
   100 OT DIIS     0.15E+00    0.7     0.00000283     -1098.7918264442 -1.18E-06
  Decoupling Energy:                                               0.0675143314
  Recoupling Energy:                                              -0.0068226419
   101 OT SD       0.15E+00    0.8     0.00000280     -1098.7918269359 -4.92E-07
  Decoupling Energy:                                               0.0675020489
  Recoupling Energy:                                              -0.0068222632
   102 OT SD       0.15E+00    0.8     0.00000578     -1098.7918267208  2.15E-07
  Decoupling Energy:                                               0.0675171011
  Recoupling Energy:                                              -0.0068228890
   103 OT DIIS     0.15E+00    0.7     0.00001535     -1098.7918240322  2.69E-06
  Decoupling Energy:                                               0.0675040342
  Recoupling Energy:                                              -0.0068224039
   104 OT SD       0.15E+00    0.7     0.00000119     -1098.7918269101 -2.88E-06
  Decoupling Energy:                                               0.0675030596
  Recoupling Energy:                                              -0.0068223827
   105 OT DIIS     0.15E+00    0.8     0.00000183     -1098.7918269966 -8.65E-08
  Decoupling Energy:                                               0.0675030117
  Recoupling Energy:                                              -0.0068223820
   106 OT SD       0.15E+00    0.8     0.00000107     -1098.7918279468 -9.50E-07
  Decoupling Energy:                                               0.0675015946
  Recoupling Energy:                                              -0.0068223425
   107 OT DIIS     0.15E+00    0.7     0.00000150     -1098.7918280365 -8.97E-08
  Decoupling Energy:                                               0.0675000536
  Recoupling Energy:                                              -0.0068223113
   108 OT DIIS     0.15E+00    0.8     0.00000102     -1098.7918291195 -1.08E-06
  Decoupling Energy:                                               0.0675016414
  Recoupling Energy:                                              -0.0068223436
   109 OT SD       0.15E+00    0.7     0.00000113     -1098.7918306981 -1.58E-06
  Decoupling Energy:                                               0.0674986109
  Recoupling Energy:                                              -0.0068222508
   110 OT DIIS     0.15E+00    0.7     0.00000206     -1098.7918307469 -4.88E-08
  Decoupling Energy:                                               0.0675007880
  Recoupling Energy:                                              -0.0068223079
   111 OT DIIS     0.15E+00    0.7     0.00000101     -1098.7918321413 -1.39E-06
  Decoupling Energy:                                               0.0675033650
  Recoupling Energy:                                              -0.0068223534
   112 OT SD       0.15E+00    0.7     0.00000139     -1098.7918337458 -1.60E-06
  Decoupling Energy:                                               0.0674989852
  Recoupling Energy:                                              -0.0068222240
   113 OT SD       0.15E+00    0.7     0.00000283     -1098.7918337427  3.12E-09
  Decoupling Energy:                                               0.0675052271
  Recoupling Energy:                                              -0.0068224683
   114 OT DIIS     0.15E+00    0.7     0.00000807     -1098.7918330791  6.64E-07
  Decoupling Energy:                                               0.0675023172
  Recoupling Energy:                                              -0.0068223197
   115 OT DIIS     0.15E+00    0.7     0.00000090     -1098.7918350598 -1.98E-06

  *** SCF run converged in   115 steps ***


  Electronic density on regular grids:       -654.0000008478       -0.0000008478
  Core density on regular grids:              654.9999999993       -0.0000000007
  Total charge density on r-space grids:        0.9999991516
  Total charge density g-space grids:           0.9999991516

  Overlap energy of the core charge distribution:               0.00004213532864
  Self energy of the core charge distribution:              -2459.11679630764229
  Core Hamiltonian energy:                                    751.03827193591769
  Hartree energy:                                            1002.26599923107267
  Exchange-correlation energy:                               -294.03608147493622
  QM/MM Electrostatic energy:                                 -98.94327057958867

  Total energy:                                             -1098.79183505984793
  Decoupling Energy:                                               0.0675041895
  Recoupling Energy:                                              -0.0068223478

 ENERGY| Total FORCE_EVAL ( QMMM ) energy [a.u.]:          -1469.875704555723132

 MD_INI| MD initialization
 MD_INI| Potential energy [hartree]                          -0.146987570456E+04
 MD_INI| Total kinetic energy [hartree]                       0.215076797492E+03
 MD_INI| QM kinetic energy [hartree]                          0.369606607592E+00
 MD_INI| Total temperature [K]                                        300.000000
 MD_INI| QM temperature [K]                                           307.542546
 MD_INI| Cell volume [bohr^3]                                 9.853827160554E+06
 MD_INI| Cell volume [ang^3]                                  1.460186515536E+06
 MD_INI| Cell lengths [bohr]      2.39870119E+02  2.39870119E+02  1.71258698E+02
 MD_INI| Cell lengths [ang]       1.26933800E+02  1.26933800E+02  9.06262000E+01
 MD_INI| Cell angles [deg]        9.00000000E+01  9.00000000E+01  9.00000000E+01

  Translating the system in order to center the QM fragment in the QM box.

 Number of electrons:                                                        654
 Number of occupied orbitals:                                                327
 Number of molecular orbitals:                                               327

 Number of orbital functions:                                               2193
 Number of independent orbital functions:                                   2193

 Extrapolation method: ASPC


 SCF WAVEFUNCTION OPTIMIZATION

  ----------------------------------- OT ---------------------------------------
  Minimizer      : DIIS                : direct inversion
                                         in the iterative subspace
                                         using   7 DIIS vectors
                                         safer DIIS on
  Preconditioner : FULL_ALL            : diagonalization, state selective
  Precond_solver : DEFAULT
  stepsize       :    0.15000000                  energy_gap     :    0.08000000
  eps_taylor     :   0.10000E-15                  max_taylor     :             4
  ----------------------------------- OT ---------------------------------------

  Step     Update method      Time    Convergence         Total energy    Change
  ------------------------------------------------------------------------------
  Decoupling Energy:                                               0.0676685163
  Recoupling Energy:                                              -0.0068237647
     1 OT DIIS     0.15E+00    1.3     0.00038786     -1098.3649186595 -1.10E+03
  Decoupling Energy:                                               0.0674457210
  Recoupling Energy:                                              -0.0068207504
     2 OT DIIS     0.15E+00    0.7     0.00028126     -1098.3740107939 -9.09E-03
  Decoupling Energy:                                               0.0676534080
  Recoupling Energy:                                              -0.0068214040
     3 OT DIIS     0.15E+00    0.7     0.00045485     -1098.3736133928  3.97E-04
  Decoupling Energy:                                               0.0674799497
  Recoupling Energy:                                              -0.0068213996
     4 OT DIIS     0.15E+00    0.7     0.00017690     -1098.3760482916 -2.43E-03
  Decoupling Energy:                                               0.0674311413
  Recoupling Energy:                                              -0.0068207547
     5 OT DIIS     0.15E+00    0.7     0.00005931     -1098.3765466934 -4.98E-04
  Decoupling Energy:                                               0.0674480090
  Recoupling Energy:                                              -0.0068203568
     6 OT DIIS     0.15E+00    0.7     0.00004396     -1098.3765894098 -4.27E-05
  Decoupling Energy:                                               0.0674579311
  Recoupling Energy:                                              -0.0068208245
     7 OT DIIS     0.15E+00    0.8     0.00001585     -1098.3766114647 -2.21E-05
  Decoupling Energy:                                               0.0674443912
  Recoupling Energy:                                              -0.0068207256
     8 OT DIIS     0.15E+00    0.7     0.00000827     -1098.3766175701 -6.11E-06
  Decoupling Energy:                                               0.0674431011
  Recoupling Energy:                                              -0.0068205890
     9 OT DIIS     0.15E+00    0.7     0.00000614     -1098.3766198956 -2.33E-06
  Decoupling Energy:                                               0.0674463524
  Recoupling Energy:                                              -0.0068208241
    10 OT DIIS     0.15E+00    0.7     0.00000529     -1098.3766226579 -2.76E-06
  Decoupling Energy:                                               0.0674354778
  Recoupling Energy:                                              -0.0068206237
    11 OT DIIS     0.15E+00    0.7     0.00000391     -1098.3766253165 -2.66E-06
  Decoupling Energy:                                               0.0674363495
  Recoupling Energy:                                              -0.0068207092
    12 OT DIIS     0.15E+00    0.7     0.00000309     -1098.3766275804 -2.26E-06
  Decoupling Energy:                                               0.0674337776
  Recoupling Energy:                                              -0.0068207255
    13 OT DIIS     0.15E+00    0.7     0.00000291     -1098.3766290608 -1.48E-06
  Decoupling Energy:                                               0.0674334116
  Recoupling Energy:                                              -0.0068207027
    14 OT DIIS     0.15E+00    0.7     0.00000290     -1098.3766298299 -7.69E-07
  Decoupling Energy:                                               0.0674327915
  Recoupling Energy:                                              -0.0068207266
    15 OT DIIS     0.15E+00    0.7     0.00000264     -1098.3766306369 -8.07E-07
  Decoupling Energy:                                               0.0674319917
  Recoupling Energy:                                              -0.0068207300
    16 OT DIIS     0.15E+00    0.7     0.00000242     -1098.3766312933 -6.56E-07
  Decoupling Energy:                                               0.0674326739
  Recoupling Energy:                                              -0.0068207336
    17 OT DIIS     0.15E+00    0.7     0.00000213     -1098.3766318452 -5.52E-07
  Decoupling Energy:                                               0.0674333956
  Recoupling Energy:                                              -0.0068207737
    18 OT DIIS     0.15E+00    0.7     0.00000187     -1098.3766326789 -8.34E-07
  Decoupling Energy:                                               0.0674305898
  Recoupling Energy:                                              -0.0068207157
    19 OT DIIS     0.15E+00    0.7     0.00000170     -1098.3766331929 -5.14E-07
  Decoupling Energy:                                               0.0674312242
  Recoupling Energy:                                              -0.0068207489
    20 OT DIIS     0.15E+00    0.7     0.00000150     -1098.3766338060 -6.13E-07
  Decoupling Energy:                                               0.0674308140
  Recoupling Energy:                                              -0.0068207379
    21 OT DIIS     0.15E+00    0.7     0.00000140     -1098.3766342942 -4.88E-07
  Decoupling Energy:                                               0.0674299934
  Recoupling Energy:                                              -0.0068207237
    22 OT DIIS     0.15E+00    0.7     0.00000141     -1098.3766346478 -3.54E-07
  Decoupling Energy:                                               0.0674290085
  Recoupling Energy:                                              -0.0068207129
    23 OT DIIS     0.15E+00    0.7     0.00000139     -1098.3766350024 -3.55E-07
  Decoupling Energy:                                               0.0674285733
  Recoupling Energy:                                              -0.0068207030
    24 OT DIIS     0.15E+00    0.7     0.00000135     -1098.3766352670 -2.65E-07
  Decoupling Energy:                                               0.0674284062
  Recoupling Energy:                                              -0.0068206934
    25 OT DIIS     0.15E+00    0.7     0.00000126     -1098.3766355691 -3.02E-07
  Decoupling Energy:                                               0.0674278968
  Recoupling Energy:                                              -0.0068206888
    26 OT DIIS     0.15E+00    0.7     0.00000115     -1098.3766359320 -3.63E-07
  Decoupling Energy:                                               0.0674264028
  Recoupling Energy:                                              -0.0068206538
    27 OT DIIS     0.15E+00    0.7     0.00000110     -1098.3766361520 -2.20E-07
  Decoupling Energy:                                               0.0674262836
  Recoupling Energy:                                              -0.0068206577
    28 OT DIIS     0.15E+00    0.7     0.00000104     -1098.3766364064 -2.54E-07
  Decoupling Energy:                                               0.0674260740
  Recoupling Energy:                                              -0.0068206467
    29 OT DIIS     0.15E+00    0.7     0.00000101     -1098.3766366576 -2.51E-07
  Decoupling Energy:                                               0.0674256129
  Recoupling Energy:                                              -0.0068206358
    30 OT DIIS     0.15E+00    0.7     0.00000101     -1098.3766368961 -2.38E-07
  Decoupling Energy:                                               0.0674251637
  Recoupling Energy:                                              -0.0068206300
    31 OT DIIS     0.15E+00    0.7     0.00000101     -1098.3766371376 -2.42E-07
  Decoupling Energy:                                               0.0674251522
  Recoupling Energy:                                              -0.0068206264
    32 OT DIIS     0.15E+00    0.7     0.00000099     -1098.3766373133 -1.76E-07

  *** SCF run converged in    32 steps ***


  Electronic density on regular grids:       -654.0000005663       -0.0000005663
  Core density on regular grids:              654.9999999988       -0.0000000012
  Total charge density on r-space grids:        0.9999994326
  Total charge density g-space grids:           0.9999994326

  Overlap energy of the core charge distribution:               0.00004332475594
  Self energy of the core charge distribution:              -2459.11679630764229
  Core Hamiltonian energy:                                    750.78618624313322
  Hartree energy:                                            1002.45030860822362
  Exchange-correlation energy:                               -293.96934582474273
  QM/MM Electrostatic energy:                                 -98.52703335704857

  Total energy:                                             -1098.37663731332077
  Decoupling Energy:                                               0.0674253560
  Recoupling Energy:                                              -0.0068206266

 ENERGY| Total FORCE_EVAL ( QMMM ) energy [a.u.]:          -1447.997668665469519

 MD| ***************************************************************************
 MD| Step number                                                               1
 MD| Time [fs]                                                          1.000000
 MD| Conserved quantity [hartree]                            -0.124929046418E+04
 MD| ---------------------------------------------------------------------------
 MD|                                          Instantaneous             Averages
 MD| CPU time per MD step [s]                    183.865514           183.865514
 MD| Energy drift per atom [K]           0.115251059362E+02   0.000000000000E+00
 MD| Potential energy [hartree]         -0.144799766867E+04  -0.144799766867E+04
 MD| Total kinetic energy [hartree]      0.198707204489E+03   0.198707204489E+03
 MD| QM kinetic energy [hartree]         0.373152782656E+00   0.373152782656E+00
 MD| Total temperature [K]                       277.166863           277.166863
 MD| QM temperature [K]                          310.493250           310.493250
 MD| ***************************************************************************

  Translating the system in order to center the QM fragment in the QM box.

 Number of electrons:                                                        654
 Number of occupied orbitals:                                                327
 Number of molecular orbitals:                                               327

 Number of orbital functions:                                               2193
 Number of independent orbital functions:                                   2193

 Extrapolation method: ASPC


 SCF WAVEFUNCTION OPTIMIZATION

  ----------------------------------- OT ---------------------------------------
  Minimizer      : DIIS                : direct inversion
                                         in the iterative subspace
                                         using   7 DIIS vectors
                                         safer DIIS on
  Preconditioner : FULL_ALL            : diagonalization, state selective
  Precond_solver : DEFAULT
  stepsize       :    0.15000000                  energy_gap     :    0.08000000
  eps_taylor     :   0.10000E-15                  max_taylor     :             4
  ----------------------------------- OT ---------------------------------------

  Step     Update method      Time    Convergence         Total energy    Change
  ------------------------------------------------------------------------------
  Decoupling Energy:                                               0.0674088301
  Recoupling Energy:                                              -0.0068195682
     1 OT DIIS     0.15E+00    1.3     0.00014519     -1097.1103375903 -1.10E+03
  Decoupling Energy:                                               0.0673603699
  Recoupling Energy:                                              -0.0068180695
     2 OT DIIS     0.15E+00    0.7     0.00010325     -1097.1115407221 -1.20E-03
  Decoupling Energy:                                               0.0674396345
  Recoupling Energy:                                              -0.0068200485
     3 OT DIIS     0.15E+00    0.7     0.00014073     -1097.1115711240 -3.04E-05
  Decoupling Energy:                                               0.0673879269
  Recoupling Energy:                                              -0.0068185928
     4 OT DIIS     0.15E+00    0.7     0.00007183     -1097.1118081205 -2.37E-04
  Decoupling Energy:                                               0.0673954316
  Recoupling Energy:                                              -0.0068183913
     5 OT DIIS     0.15E+00    0.7     0.00003196     -1097.1118770238 -6.89E-05
  Decoupling Energy:                                               0.0674106191
  Recoupling Energy:                                              -0.0068193007
     6 OT DIIS     0.15E+00    0.7     0.00001255     -1097.1118917715 -1.47E-05
  Decoupling Energy:                                               0.0673971222
  Recoupling Energy:                                              -0.0068186952
     7 OT DIIS     0.15E+00    0.7     0.00000811     -1097.1118944726 -2.70E-06
  Decoupling Energy:                                               0.0674024450
  Recoupling Energy:                                              -0.0068187644
     8 OT DIIS     0.15E+00    0.7     0.00000657     -1097.1118958192 -1.35E-06
  Decoupling Energy:                                               0.0674065879
  Recoupling Energy:                                              -0.0068189110
     9 OT DIIS     0.15E+00    0.7     0.00000358     -1097.1118967748 -9.56E-07
  Decoupling Energy:                                               0.0674111719
  Recoupling Energy:                                              -0.0068188893
    10 OT DIIS     0.15E+00    0.7     0.00000297     -1097.1118980957 -1.32E-06
  Decoupling Energy:                                               0.0674154571
  Recoupling Energy:                                              -0.0068189177
    11 OT DIIS     0.15E+00    0.7     0.00000243     -1097.1118994023 -1.31E-06
  Decoupling Energy:                                               0.0674242683
  Recoupling Energy:                                              -0.0068189805
    12 OT DIIS     0.15E+00    0.7     0.00000213     -1097.1119005983 -1.20E-06
  Decoupling Energy:                                               0.0674287072
  Recoupling Energy:                                              -0.0068190077
    13 OT DIIS     0.15E+00    0.7     0.00000223     -1097.1119012743 -6.76E-07
  Decoupling Energy:                                               0.0674307668
  Recoupling Energy:                                              -0.0068190347
    14 OT DIIS     0.15E+00    0.7     0.00000192     -1097.1119016598 -3.86E-07
  Decoupling Energy:                                               0.0674335340
  Recoupling Energy:                                              -0.0068190148
    15 OT DIIS     0.15E+00    0.7     0.00000181     -1097.1119022132 -5.53E-07
  Decoupling Energy:                                               0.0674373508
  Recoupling Energy:                                              -0.0068190772
    16 OT DIIS     0.15E+00    0.7     0.00000186     -1097.1119025853 -3.72E-07
  Decoupling Energy:                                               0.0674391061
  Recoupling Energy:                                              -0.0068191107
    17 OT DIIS     0.15E+00    0.7     0.00000164     -1097.1119028524 -2.67E-07
  Decoupling Energy:                                               0.0674412066
  Recoupling Energy:                                              -0.0068190908
    18 OT DIIS     0.15E+00    0.7     0.00000137     -1097.1119033625 -5.10E-07
  Decoupling Energy:                                               0.0674429016
  Recoupling Energy:                                              -0.0068191220
    19 OT DIIS     0.15E+00    0.7     0.00000126     -1097.1119037080 -3.46E-07
  Decoupling Energy:                                               0.0674442938
  Recoupling Energy:                                              -0.0068191307
    20 OT DIIS     0.15E+00    0.7     0.00000119     -1097.1119041134 -4.05E-07
  Decoupling Energy:                                               0.0674445607
  Recoupling Energy:                                              -0.0068191315
    21 OT DIIS     0.15E+00    0.7     0.00000120     -1097.1119044267 -3.13E-07
  Decoupling Energy:                                               0.0674440737
  Recoupling Energy:                                              -0.0068191330
    22 OT DIIS     0.15E+00    0.7     0.00000119     -1097.1119046518 -2.25E-07
  Decoupling Energy:                                               0.0674432050
  Recoupling Energy:                                              -0.0068191135
    23 OT DIIS     0.15E+00    0.7     0.00000113     -1097.1119049764 -3.25E-07
  Decoupling Energy:                                               0.0674431151
  Recoupling Energy:                                              -0.0068191266
    24 OT DIIS     0.15E+00    0.7     0.00000116     -1097.1119052243 -2.48E-07
  Decoupling Energy:                                               0.0674421311
  Recoupling Energy:                                              -0.0068191222
    25 OT DIIS     0.15E+00    0.7     0.00000112     -1097.1119054457 -2.21E-07
  Decoupling Energy:                                               0.0674408121
  Recoupling Energy:                                              -0.0068190934
    26 OT DIIS     0.15E+00    0.7     0.00000102     -1097.1119057545 -3.09E-07
  Decoupling Energy:                                               0.0674399027
  Recoupling Energy:                                              -0.0068191000
    27 OT DIIS     0.15E+00    0.7     0.00000112     -1097.1119060432 -2.89E-07
  Decoupling Energy:                                               0.0674395707
  Recoupling Energy:                                              -0.0068190959
    28 OT DIIS     0.15E+00    0.7     0.00000098     -1097.1119060986 -5.54E-08

  *** SCF run converged in    28 steps ***


  Electronic density on regular grids:       -654.0000002644       -0.0000002644
  Core density on regular grids:              654.9999999993       -0.0000000007
  Total charge density on r-space grids:        0.9999997348
  Total charge density g-space grids:           0.9999997348

  Overlap energy of the core charge distribution:               0.00004731805611
  Self energy of the core charge distribution:              -2459.11679630764229
  Core Hamiltonian energy:                                    750.43690688263302
  Hartree energy:                                            1002.71670951322790
  Exchange-correlation energy:                               -293.87544438369599
  QM/MM Electrostatic energy:                                 -97.27332912115158

  Total energy:                                             -1097.11190609857272
  Decoupling Energy:                                               0.0674380167
  Recoupling Energy:                                              -0.0068190789

 ENERGY| Total FORCE_EVAL ( QMMM ) energy [a.u.]:          -1445.975610954558533

 MD| ***************************************************************************
 MD| Step number                                                               2
 MD| Time [fs]                                                          2.000000
 MD| Conserved quantity [hartree]                            -0.125000601138E+04
 MD| ---------------------------------------------------------------------------
 MD|                                          Instantaneous             Averages
 MD| CPU time per MD step [s]                     50.548754           117.207134
 MD| Energy drift per atom [K]           0.100279936909E+02   0.501399684547E+01
 MD| Potential energy [hartree]         -0.144597561095E+04  -0.144698663981E+04
 MD| Total kinetic energy [hartree]      0.195969599577E+03   0.197338402033E+03
 MD| QM kinetic energy [hartree]         0.375000121382E+00   0.374076452019E+00
 MD| Total temperature [K]                       273.348314           275.257588
 MD| QM temperature [K]                          312.030385           311.261818
 MD| ***************************************************************************

  Translating the system in order to center the QM fragment in the QM box.

 Number of electrons:                                                        654
 Number of occupied orbitals:                                                327
 Number of molecular orbitals:                                               327

 Number of orbital functions:                                               2193
 Number of independent orbital functions:                                   2193

 Extrapolation method: ASPC


 SCF WAVEFUNCTION OPTIMIZATION

  ----------------------------------- OT ---------------------------------------
  Minimizer      : DIIS                : direct inversion
                                         in the iterative subspace
                                         using   7 DIIS vectors
                                         safer DIIS on
  Preconditioner : FULL_ALL            : diagonalization, state selective
  Precond_solver : DEFAULT
  stepsize       :    0.15000000                  energy_gap     :    0.08000000
  eps_taylor     :   0.10000E-15                  max_taylor     :             4
  ----------------------------------- OT ---------------------------------------

  Step     Update method      Time    Convergence         Total energy    Change
  ------------------------------------------------------------------------------
  Decoupling Energy:                                               0.0675533073
  Recoupling Energy:                                              -0.0068193277
     1 OT DIIS     0.15E+00    1.3     0.00011068     -1095.1861425732 -1.10E+03
  Decoupling Energy:                                               0.0674828413
  Recoupling Energy:                                              -0.0068161216
     2 OT DIIS     0.15E+00    0.7     0.00009180     -1095.1868075075 -6.65E-04
  Decoupling Energy:                                               0.0675255381
  Recoupling Energy:                                              -0.0068195329
     3 OT DIIS     0.15E+00    0.7     0.00012657     -1095.1867965235  1.10E-05
  Decoupling Energy:                                               0.0675625366
  Recoupling Energy:                                              -0.0068188737
     4 OT DIIS     0.15E+00    0.7     0.00005633     -1095.1869793944 -1.83E-04
  Decoupling Energy:                                               0.0675099923
  Recoupling Energy:                                              -0.0068172535
     5 OT DIIS     0.15E+00    0.7     0.00003097     -1095.1870149593 -3.56E-05
  Decoupling Energy:                                               0.0675173861
  Recoupling Energy:                                              -0.0068179641
     6 OT DIIS     0.15E+00    0.7     0.00000933     -1095.1870286937 -1.37E-05
  Decoupling Energy:                                               0.0675224190
  Recoupling Energy:                                              -0.0068178963
     7 OT DIIS     0.15E+00    0.7     0.00000746     -1095.1870298099 -1.12E-06
  Decoupling Energy:                                               0.0675214534
  Recoupling Energy:                                              -0.0068178626
     8 OT DIIS     0.15E+00    0.7     0.00000372     -1095.1870307165 -9.07E-07
  Decoupling Energy:                                               0.0675208850
  Recoupling Energy:                                              -0.0068178972
     9 OT DIIS     0.15E+00    0.7     0.00000225     -1095.1870311654 -4.49E-07
  Decoupling Energy:                                               0.0675212764
  Recoupling Energy:                                              -0.0068178618
    10 OT DIIS     0.15E+00    0.7     0.00000191     -1095.1870316520 -4.87E-07
  Decoupling Energy:                                               0.0675235626
  Recoupling Energy:                                              -0.0068178974
    11 OT DIIS     0.15E+00    0.7     0.00000164     -1095.1870322213 -5.69E-07
  Decoupling Energy:                                               0.0675241193
  Recoupling Energy:                                              -0.0068178675
    12 OT DIIS     0.15E+00    0.7     0.00000156     -1095.1870326840 -4.63E-07
  Decoupling Energy:                                               0.0675254245
  Recoupling Energy:                                              -0.0068178813
    13 OT DIIS     0.15E+00    0.7     0.00000160     -1095.1870330003 -3.16E-07
  Decoupling Energy:                                               0.0675272098
  Recoupling Energy:                                              -0.0068179051
    14 OT DIIS     0.15E+00    0.7     0.00000132     -1095.1870332044 -2.04E-07
  Decoupling Energy:                                               0.0675281726
  Recoupling Energy:                                              -0.0068178838
    15 OT DIIS     0.15E+00    0.7     0.00000125     -1095.1870334379 -2.33E-07
  Decoupling Energy:                                               0.0675291621
  Recoupling Energy:                                              -0.0068178956
    16 OT DIIS     0.15E+00    0.7     0.00000122     -1095.1870336409 -2.03E-07
  Decoupling Energy:                                               0.0675300182
  Recoupling Energy:                                              -0.0068179091
    17 OT DIIS     0.15E+00    0.7     0.00000107     -1095.1870337831 -1.42E-07
  Decoupling Energy:                                               0.0675312551
  Recoupling Energy:                                              -0.0068178969
    18 OT DIIS     0.15E+00    0.7     0.00000096     -1095.1870340358 -2.53E-07

  *** SCF run converged in    18 steps ***


  Electronic density on regular grids:       -654.0000000154       -0.0000000154
  Core density on regular grids:              654.9999999996       -0.0000000004
  Total charge density on r-space grids:        0.9999999842
  Total charge density g-space grids:           0.9999999842

  Overlap energy of the core charge distribution:               0.00004961136655
  Self energy of the core charge distribution:              -2459.11679630764229
  Core Hamiltonian energy:                                    750.02608264750245
  Hartree energy:                                            1003.02378334633750
  Exchange-correlation energy:                               -293.76776744835502
  QM/MM Electrostatic energy:                                 -95.35238588505038

  Total energy:                                             -1095.18703403584118
  Decoupling Energy:                                               0.0675326305
  Recoupling Energy:                                              -0.0068179128

 ENERGY| Total FORCE_EVAL ( QMMM ) energy [a.u.]:          -1460.415579759849834

 MD| ***************************************************************************
 MD| Step number                                                               3
 MD| Time [fs]                                                          3.000000
 MD| Conserved quantity [hartree]                            -0.125224647679E+04
 MD| ---------------------------------------------------------------------------
 MD|                                          Instantaneous             Averages
 MD| CPU time per MD step [s]                     43.439338            92.617869
 MD| Energy drift per atom [K]           0.534035295963E+01   0.512278221686E+01
 MD| Potential energy [hartree]         -0.146041557976E+04  -0.145146295313E+04
 MD| Total kinetic energy [hartree]      0.208169102968E+03   0.200948635678E+03
 MD| QM kinetic energy [hartree]         0.389729429215E+00   0.379294111085E+00
 MD| Total temperature [K]                       290.364798           280.293325
 MD| QM temperature [K]                          324.286359           315.603332
 MD| ***************************************************************************

  Translating the system in order to center the QM fragment in the QM box.

 Number of electrons:                                                        654
 Number of occupied orbitals:                                                327
 Number of molecular orbitals:                                               327

 Number of orbital functions:                                               2193
 Number of independent orbital functions:                                   2193

 Extrapolation method: ASPC


 SCF WAVEFUNCTION OPTIMIZATION

  ----------------------------------- OT ---------------------------------------
  Minimizer      : DIIS                : direct inversion
                                         in the iterative subspace
                                         using   7 DIIS vectors
                                         safer DIIS on
  Preconditioner : FULL_ALL            : diagonalization, state selective
  Precond_solver : DEFAULT
  stepsize       :    0.15000000                  energy_gap     :    0.08000000
  eps_taylor     :   0.10000E-15                  max_taylor     :             4
  ----------------------------------- OT ---------------------------------------

  Step     Update method      Time    Convergence         Total energy    Change
  ------------------------------------------------------------------------------
  Decoupling Energy:                                               0.0677315473
  Recoupling Energy:                                              -0.0068195201
     1 OT DIIS     0.15E+00    1.3     0.00008419     -1092.7816095779 -1.09E+03
  Decoupling Energy:                                               0.0676141165
  Recoupling Energy:                                              -0.0068141668
     2 OT DIIS     0.15E+00    0.7     0.00009953     -1092.7819018708 -2.92E-04
  Decoupling Energy:                                               0.0676505950
  Recoupling Energy:                                              -0.0068178723
     3 OT DIIS     0.15E+00    0.7     0.00009200     -1092.7819645644 -6.27E-05
  Decoupling Energy:                                               0.0677062413
  Recoupling Energy:                                              -0.0068185969
     4 OT DIIS     0.15E+00    0.7     0.00005039     -1092.7820484790 -8.39E-05
  Decoupling Energy:                                               0.0676509345
  Recoupling Energy:                                              -0.0068162292
     5 OT DIIS     0.15E+00    0.7     0.00002281     -1092.7820808027 -3.23E-05
  Decoupling Energy:                                               0.0676473036
  Recoupling Energy:                                              -0.0068166474
     6 OT DIIS     0.15E+00    0.7     0.00000797     -1092.7820888727 -8.07E-06
  Decoupling Energy:                                               0.0676530861
  Recoupling Energy:                                              -0.0068167057
     7 OT DIIS     0.15E+00    0.7     0.00000582     -1092.7820898196 -9.47E-07
  Decoupling Energy:                                               0.0676502333
  Recoupling Energy:                                              -0.0068166357
     8 OT DIIS     0.15E+00    0.7     0.00000316     -1092.7820904258 -6.06E-07
  Decoupling Energy:                                               0.0676475479
  Recoupling Energy:                                              -0.0068165805
     9 OT DIIS     0.15E+00    0.7     0.00000209     -1092.7820908361 -4.10E-07
[...]
 flops    32 x    32 x     5         149126144000       0.0%      0.0%    100.0%
 flops     5 x    32 x    32         185278361600       0.0%      0.0%    100.0%
 flops    13 x    13 x    32         201007788800       0.0%      0.0%    100.0%
 flops    32 x    32 x    13         328295219200       0.0%      0.0%    100.0%
 flops     5 x    32 x     5         340244432000       0.0%      0.0%    100.0%
 flops    13 x    32 x    32         407882874880       0.0%      0.0%    100.0%
 flops    13 x    32 x     5         748647244800       0.0%      0.0%    100.0%
 flops     5 x    32 x    13         748647244800       0.0%      0.0%    100.0%
 flops    13 x    32 x    13        1636056930560       0.0%      0.0%    100.0%
 flops inhomo. stacks                           0       0.0%      0.0%      0.0%
 flops total                         5.223987E+12       0.0%      0.0%    100.0%
 flops max/rank                    254.638825E+09       0.0%      0.0%    100.0%
 matmuls inhomo. stacks                         0       0.0%      0.0%      0.0%
 matmuls total                          969389322       0.0%      0.0%    100.0%
 number of processed stacks              27722178       0.0%      0.0%    100.0%
 average stack size                                     0.0       0.0      35.0
 marketing flops                     5.682660E+12
 -------------------------------------------------------------------------------
 # multiplications                           5531
 max memory usage/rank               1.881068E+09
 # max total images/rank                        2
 # max 3D layers                                1
 # MPI messages exchanged                 2300896
 MPI messages size (bytes):
  total size                       471.805428E+09
  min size                           0.000000E+00
  max size                           1.236480E+06
  average size                     205.052906E+03
 MPI breakdown and total messages size (bytes):
             size <=      128                4088                        0
       128 < size <=     8192              228330               1870479360
      8192 < size <=    32768              669680              13009681240
     32768 < size <=   131072              428622              29160274064
    131072 < size <=  4194304              970176             427748838056
   4194304 < size <= 16777216                   0                        0
  16777216 < size                               0                        0
 -------------------------------------------------------------------------------

 *** WARNING in dbcsr_mm.F:294 :: Using a non-square number of MPI ranks ***
 *** might lead to poor performance. Used ranks: 32 Suggested: 36 64     ***

 -------------------------------------------------------------------------------
 -                                                                             -
 -                      DBCSR MESSAGE PASSING PERFORMANCE                      -
 -                                                                             -
 -------------------------------------------------------------------------------
 ROUTINE             CALLS      AVE VOLUME [Bytes]
 MP_Bcast               41                     12.
 MP_Allreduce        19991                      8.
 MP_Alltoall         17557                  26615.
 MP_ISend           171424                  99525.
 MP_IRecv           171424                  96824.
 -------------------------------------------------------------------------------

 -------------------------------------------------------------------------------
 -                                                                             -
 -                                GRID STATISTICS                              -
 -                                                                             -
 -------------------------------------------------------------------------------
 LP    KERNEL             BACKEND                              COUNT     PERCENT
 3     collocate ortho    GPU                               86074321      24.30%
 3     integrate ortho    GPU                               85298327      24.08%
 2     collocate ortho    GPU                               56030402      15.82%
 2     integrate ortho    GPU                               54583213      15.41%
 4     integrate ortho    GPU                               36255800      10.24%
 4     collocate ortho    GPU                               34935048       9.86%
 5     integrate ortho    GPU                                 902431       0.25%
 0     collocate general  REF                                  56672       0.02%
 1     integrate general  REF                                  56672       0.02%
 -------------------------------------------------------------------------------

 MEMORY| Estimated peak process memory [MiB]                                1856

 -------------------------------------------------------------------------------
 -                                                                             -
 -                         MESSAGE PASSING PERFORMANCE                         -
 -                                                                             -
 -------------------------------------------------------------------------------

 ROUTINE             CALLS      AVE VOLUME [Bytes]
 MP_Group                8
 MP_Bcast            10325                8767352.
 MP_Allreduce         9525                  16854.
 MP_Sync               163
 MP_Alltoall          5380               28030721.
 MP_SendRecv          3052                  72198.
 MP_ISendRecv        33604                  72576.
 MP_Wait             62887
 MP_comm_split          72
 MP_ISend            24779                 790609.
 MP_IRecv            24772                 790631.
 MP_Recv               160                 561408.
 -------------------------------------------------------------------------------


 -------------------------------------------------------------------------------
 -                                                                             -
 -                           R E F E R E N C E S                               -
 -                                                                             -
 -------------------------------------------------------------------------------
 
 CP2K version 8.2, the CP2K developers group (2021).
 CP2K is freely available from https://www.cp2k.org/ .

 Kuehne,Thomas D.; Iannuzzi,Marcella; Del Ben,Mauro;
 Rybkin,Vladimir V.; Seewald,Patrick; Stein,Frederick; Laino,Teodoro;
 Khaliullin,Rustam Z.; Schuett,Ole; Schiffmann,Florian; Golze,Dorothea;
 Wilhelm,Jan; Chulkov,Sergey; Bani-Hashemian,Mohammad Hossein;
 Weber,Valery; Borstnik,Urban; Taillefumier,Mathieu;
 Jakobovits,Alice Shoshana; Lazzaro,Alfio; Pabst,Hans; Mueller,Tiziano;
 Schade,Robert; Guidon,Manuel; Andermatt,Samuel; Holmberg,Nico;
 Schenter,Gregory K.; Hehn,Anna; Bussy,Augustin; Belleflamme,Fabian;
 Tabacchi,Gloria; Gloess,Andreas; Lass,Michael; Bethune,Iain;
 Mundy,Christopher J.; Plessl,Christian; Watkins,Matt;
 VandeVondele,Joost; Krack,Matthias; Hutter,Juerg. 
 The Journal of Chemical Physics, 152 (19), (2020). 
 CP2K: An electronic structure and molecular dynamics software package -
 Quickstep: Efficient and accurate electronic structure calculations.
 https://doi.org/10.1063/5.0007045

 Schuett, Ole; Messmer, Peter; Hutter, Juerg; VandeVondele, Joost. 
 Electronic Structure Calculations on Graphics Processing Units, John
 Wiley & Sons, Ltd, 173-190 (2016). 
 GPU-Accelerated Sparse Matrix-Matrix Multiplication for
 Linear Scaling Density Functional Theory.
 https://doi.org/10.1002/9781118670712.ch8

 Heinecke, A; Henry, G; Hutchinson, M; Pabst, H. 
 Proceedings of Intl. Supercomputing Conference, 981-991 (2016). 
 LIBXSMM: Accelerating Small Matrix Multiplications
 by Runtime Code Generation.
 https://doi.org/10.1109/SC.2016.83

 Borstnik, U; VandeVondele, J; Weber, V; Hutter, J. 
 PARALLEL COMPUTING, 40 (5-6), 47-58 (2014). 
 Sparse matrix multiplication: The distributed block-compressed sparse
 row library.
 https://doi.org/10.1016/j.parco.2014.03.012

 Hutter, J; Iannuzzi, M; Schiffmann, F; VandeVondele, J. 
 WIREs Comput Mol Sci., 4 (1), 15-25 (2014). 
 CP2K: atomistic simulations of condensed matter systems.
 https://doi.org/10.1002/wcms.1159

 Marek, A; Blum, V; Johanni, R; Havu, V; Lang, B; Auckenthaler, T;
 Heinecke, A; Bungartz, H; Lederer, H. 
 Journal of Physics: Condensed Matter, 26 (21), (2014). 
 The ELPA library: scalable parallel eigenvalue solutions for
 electronic structure
 theory and computational science.
 https://doi.org/10.1088/0953-8984/26/21/213201

 VandeVondele, J; Hutter, J. 
 JOURNAL OF CHEMICAL PHYSICS, 127 (11), 114105 (2007). 
 Gaussian basis sets for accurate calculations on molecular systems in
 gas and condensed phases.
 https://doi.org/10.1063/1.2770708

 Kuhne, TD; Krack, M; Mohamed, FR; Parrinello, M. 
 PHYSICAL REVIEW LETTERS, 98 (6), 066401 (2007). 
 Efficient and accurate Car-Parrinello-like approach to
 Born-Oppenheimer molecular dynamics.
 https://doi.org/10.1103/PhysRevLett.98.066401

 Laino, T; Mohamed, F; Laio, A; Parrinello, M. 
 JOURNAL OF CHEMICAL THEORY AND COMPUTATION, 2 (5), 1370-1378 (2006). 
 An efficient linear-scaling electrostatic coupling for treating
 periodic boundary conditions in QM/MM simulations.
 https://doi.org/10.1021/ct6001169

 Laino, T; Mohamed, F; Laio, A; Parrinello, M. 
 JOURNAL OF CHEMICAL THEORY AND COMPUTATION, 1 (6), 1176-1184 (2005). 
 An efficient real space multigrid QM/MM electrostatic coupling.
 https://doi.org/10.1021/ct050123f

 Krack, M. 
 THEORETICAL CHEMISTRY ACCOUNTS, 114 (1-3), 145-152 (2005). 
 Pseudopotentials for H to Kr optimized for gradient-corrected
 exchange-correlation functionals.
 https://doi.org/10.1007/s00214-005-0655-y

 VandeVondele, J; Krack, M; Mohamed, F; Parrinello, M; Chassaing, T;
 Hutter, J. COMPUTER PHYSICS COMMUNICATIONS, 167 (2), 103-128 (2005). 
 QUICKSTEP: Fast and accurate density functional calculations using a
 mixed Gaussian and plane waves approach.
 https://doi.org/10.1016/j.cpc.2004.12.014

 Frigo, M; Johnson, SG. 
 PROCEEDINGS OF THE IEEE, 93 (2), 216-231 (2005). 
 The design and implementation of FFTW3.
 https://doi.org/10.1109/JPROC.2004.840301

 Kolafa, J. 
 JOURNAL OF COMPUTATIONAL CHEMISTRY, 25 (3), 335-342 (2004). 
 Time-reversible always stable predictor-corrector method for molecular dynamics of polarizable molecules.
 https://doi.org/10.1002/jcc.10385

 VandeVondele, J; Hutter, J. 
 JOURNAL OF CHEMICAL PHYSICS, 118 (10), 4365-4369 (2003). 
 An efficient orbital transformation method for electronic structure
 calculations.
 https://doi.org/10.1063/1.1543154

 Hartwigsen, C; Goedecker, S; Hutter, J. 
 PHYSICAL REVIEW B, 58 (7), 3641-3662 (1998). 
 Relativistic separable dual-space Gaussian pseudopotentials from H to Rn.
 https://doi.org/10.1103/PhysRevB.58.3641

 Lippert, G; Hutter, J; Parrinello, M. 
 MOLECULAR PHYSICS, 92 (3), 477-487 (1997). 
 A hybrid Gaussian and plane wave density functional scheme.
 https://doi.org/10.1080/002689797170220

 Goedecker, S; Teter, M; Hutter, J. 
 PHYSICAL REVIEW B, 54 (3), 1703-1710 (1996). 
 Separable dual-space Gaussian pseudopotentials.
 https://doi.org/10.1103/PhysRevB.54.1703

 ESSMANN, U; PERERA, L; BERKOWITZ, ML; DARDEN, T; LEE, H; PEDERSEN, LG. 
 JOURNAL OF CHEMICAL PHYSICS, 103 (19), 8577-8593 (1995). 
 A SMOOTH PARTICLE MESH EWALD METHOD.
 https://doi.org/10.1063/1.470117

 BLOCHL, PE. 
 JOURNAL OF CHEMICAL PHYSICS, 103 (17), 7422-7428 (1995). 
 ELECTROSTATIC DECOUPLING OF PERIODIC IMAGES OF PLANE-WAVE-EXPANDED
 DENSITIES AND DERIVED ATOMIC POINT CHARGES.
 https://doi.org/10.1063/1.470314

 BECKE, AD. PHYSICAL REVIEW A, 38 (6), 3098-3100 (1988). 
 DENSITY-FUNCTIONAL EXCHANGE-ENERGY APPROXIMATION WITH CORRECT
 ASYMPTOTIC-BEHAVIOR.
 https://doi.org/10.1103/PhysRevA.38.3098

 LEE, CT; YANG, WT; PARR, RG. 
 PHYSICAL REVIEW B, 37 (2), 785-789 (1988). 
 DEVELOPMENT OF THE COLLE-SALVETTI CORRELATION-ENERGY FORMULA INTO A
 FUNCTIONAL OF THE ELECTRON-DENSITY.
 https://doi.org/10.1103/PhysRevB.37.785


 -------------------------------------------------------------------------------
 -                                                                             -
 -                                T I M I N G                                  -
 -                                                                             -
 -------------------------------------------------------------------------------
 SUBROUTINE                       CALLS  ASD         SELF TIME        TOTAL TIME
                                MAXIMUM       AVERAGE  MAXIMUM  AVERAGE  MAXIMUM
 CP2K                                 1  1.0    0.249    0.298  480.210  480.211
 qs_mol_dyn_low                       1  2.0    0.007    0.007  421.777  423.172
 velocity_verlet                      6  3.0    0.020    0.023  290.952  291.039
 qs_forces                            7  3.9    0.001    0.001  223.911  223.919
 qs_energies                          7  4.9    0.000    0.000  217.708  217.720
 scf_env_do_scf                       7  5.9    0.001    0.001  204.445  204.446
 scf_env_do_scf_inner_loop          264  6.6    0.005    0.015  192.764  192.811
 qmmm_el_coupling                     7  3.9    0.000    0.000  132.339  132.360
 qmmm_elec_with_gaussian              7  4.9    0.009    0.010  132.338  132.359
 qmmm_elec_with_gaussian_low          7  5.9    0.000    0.000  107.830  130.147
 rebuild_ks_matrix                  271  8.5    0.001    0.001  113.410  114.855
 qs_ks_build_kohn_sham_matrix       271  9.5    0.032    0.034  113.409  114.854
 qs_ks_update_qs_env                271  7.6    0.002    0.003  108.519  109.927
 qmmm_elec_gaussian_low_G             7  6.9   91.062  107.557   91.062  107.557
 dbcsr_multiply_generic            5531 12.7    0.239    0.257   67.746   71.174
 pw_transfer                       5497 12.2    0.313    0.355   69.447   70.546
 fft_wrap_pw1pw2                   4649 13.2    0.042    0.046   68.553   69.644
 fft_wrap_pw1pw2_150               2995 14.4    0.014    0.016   64.241   65.715
 multiply_cannon                   5531 13.7    0.900    0.989   50.217   62.666
 multiply_cannon_loop              5531 14.7    1.143    1.253   47.601   59.960
 qs_scf_new_mos                     264  7.6    0.002    0.002   58.452   59.327
 qs_scf_loop_do_ot                  264  8.6    0.002    0.002   58.450   59.325
 qmmm_env_create                      1  2.0    7.163    7.425   56.680   56.686
 ot_scf_mini                        264  9.6    0.005    0.006   53.784   54.289
 multiply_cannon_multrec          44248 15.7   11.707   29.096   30.989   51.874
 qs_vxc_create                      271 10.5    0.005    0.006   49.414   49.463
 xc_vxc_pw_create                   271 11.5    1.397    1.429   49.409   49.458
 qmmm_forces                          7  3.9    0.028    0.033   47.382   47.388
 qmmm_forces_with_gaussian            7  4.9    0.018    0.024   35.099   46.816
 fist_init                            1  3.0    0.000    0.000   44.648   44.650
 qmmm_force_with_gaussian_low         7  5.9    0.000    0.000   32.624   44.341
 ot_mini                            264 10.6    0.001    0.002   37.287   38.538
 pw_cuda_c1dr3d_3d_ps              2467 15.8    0.040    0.044   36.518   37.501
 dbcsr_mm_accdrv_process         130068 16.3   18.269   35.462   18.851   36.896
 pw_cuda_r3dc1d_3d_ps              2182 14.6    0.036    0.039   31.974   32.555
 sum_up_and_integrate               271 10.5    0.398    0.424   30.410   30.617
 integrate_v_rspace                 271 11.5    0.007    0.008   30.012   30.193
 qs_rho_update_rho                  271  7.6    0.001    0.002   29.248   29.901
 calculate_rho_elec                 271  8.6    1.027    1.030   29.247   29.900
 mp_sync                            163 13.7   22.902   28.830   22.902   28.830
 qmmm_forces_gaussian_low_R           7  6.9    0.000    0.000   18.726   28.472
 qmmm_forces_with_gaussian_LG         7  7.9   18.726   28.472   18.726   28.472
 force_field_control                  1  4.0    0.000    0.000   27.877   28.184
 mp_waitall_1                    392092 16.6   15.371   27.017   15.371   27.017
 mp_alltoall_z22v                  4649 17.2   22.013   24.645   22.013   24.645
 rdparm_amber_8                       2  6.5   21.101   21.962   24.577   24.618
 density_rs2pw                      271  9.6    0.010    0.011   22.849   23.906
 xc_rho_set_and_dset_create         271 12.5    1.440    1.537   22.659   23.045
 qs_ot_get_derivative               264 11.6    0.002    0.003   22.441   22.948
 qmmm_elec_gaussian_low_R             7  6.9    0.000    0.000   16.768   22.889
 qmmm_elec_with_gaussian_LG           7  7.9   16.768   22.889   16.768   22.889
 multiply_cannon_metrocomm3       44248 15.7    0.086    0.090   11.119   22.515
 qs_ks_ddapc                        271 10.5    0.004    0.004   20.213   20.517
 mp_sum_l                         16864 13.5   11.751   19.263   11.751   19.263
 rs_pw_transfer                    2210 11.9    0.027    0.031   17.513   18.465
 mp_sum_dm                          908  5.1   15.150   18.113   15.150   18.113
 x_to_yz                           2467 16.8    4.558    5.808   16.150   17.459
 mp_sum_d                          9803 11.1   10.933   17.083   10.933   17.083
 topology_control                     1  4.0    0.000    0.000   16.447   16.483
 potential_pw2rs                    271 12.5    0.054    0.060   16.453   16.482
 qmmm_forces_gaussian_low_G           7  6.9   13.898   15.957   13.898   15.957
 force_field_pack                     1  5.0    0.016    0.017   15.022   15.321
 yz_to_x                           2182 15.6    2.929    3.460   13.351   14.536
 cp_ddapc_apply_CD                  271 11.5    0.023    0.423   14.183   14.184
 ot_diis_step                       264 11.6    0.008    0.008   14.054   14.057
 fist_calc_energy_force               7  3.9    0.058    0.066   14.021   14.034
 grid_integrate_task_list           271 12.5    8.378   13.268    8.378   13.268
 apply_preconditioner_dbcsr         271 12.6    0.001    0.001   11.455   12.884
 apply_all                          271 13.6    0.021    0.032   11.455   12.883
 read_force_field_amber               1  5.0    0.004    0.005   12.784   12.819
 pw_cuda_sf                        2467 16.8   12.128   12.587   12.128   12.587
 connectivity_control                 2  4.0    0.000    0.000   12.546   12.570
 pw_cuda_fg                        2182 15.6   11.432   12.204   11.432   12.204
 read_connectivity_amber              1  6.0    0.000    0.000   11.797   11.814
 init_scf_loop                        7  6.9    0.000    0.000   11.626   11.627
 qs_ot_get_derivative_taylor        207 12.7    0.006    0.006   10.878   11.284
 force_nonbond                        7  4.9    7.787   10.935    7.787   10.935
 mp_waitany                       24772 13.9    9.079   10.028    9.079   10.028
 pw_integral_ab                    3707  8.2    6.469    6.597    9.255    9.935
 force_field_pack_ub                  1  6.0    9.599    9.817    9.599    9.817
 -------------------------------------------------------------------------------

 The number of warnings for this run is : 1
 
 -------------------------------------------------------------------------------
  **** **** ******  **  PROGRAM ENDED AT                 2021-07-26 14:41:59.188
 ***** ** ***  *** **   PROGRAM RAN ON                                    r2i4n0
 **    ****   ******    PROGRAM RAN BY                                    hollyj
 ***** **    ** ** **   PROGRAM PROCESS ID                                 66784
  **** **  *******  **  PROGRAM STOPPED IN /lustre/home/w68/hollyj/CP2K/Cirrus/G
                                           PU/cp2kMD/ClC-253-BLYP/6STEPS/8NODES/
                                           36CPN/10THREADS
