 DBCSR| CPU Multiplication driver                                           XSMM
 DBCSR| Multrec recursion limit                                              512
 DBCSR| Multiplication stack size                                           1000
 DBCSR| Maximum elements for images                                    UNLIMITED
 DBCSR| Multiplicative factor virtual images                                   1
 DBCSR| Use multiplication densification                                       T
 DBCSR| Multiplication size stacks                                             3
 DBCSR| Use memory pool for CPU allocation                                     F
 DBCSR| Number of 3D layers                                               SINGLE
 DBCSR| Use MPI memory allocation                                              F
 DBCSR| Use RMA algorithm                                                      F
 DBCSR| Use Communication thread                                               T
 DBCSR| Communication thread load                                             83
 DBCSR| MPI: My node id                                                        0
 DBCSR| MPI: Number of nodes                                                  36
 DBCSR| OMP: Current number of threads                                         2
 DBCSR| OMP: Max number of threads                                             2
 DBCSR| Split modifier for TAS multiplication algorithm                  1.0E+00


  **** **** ******  **  PROGRAM STARTED AT               2021-02-26 11:40:19.920
 ***** ** ***  *** **   PROGRAM STARTED ON                                r1i6n2
 **    ****   ******    PROGRAM STARTED BY                                hollyj
 ***** **    ** ** **   PROGRAM PROCESS ID                                   452
  **** **  *******  **  PROGRAM STARTED IN /lustre/home/w68/hollyj/CP2K/Cirrus/C
                                           PU/cp2kMD/CBD_PHY/1STEPS/2NODES/36CPN
                                           /2THREADS

 CP2K| version string:                                          CP2K version 8.1
 CP2K| source code revision number:                                  git:0b61f2f
 CP2K| cp2kflags: omp libint fftw3 libxc elpa parallel mpi3 scalapack xsmm spgli
 CP2K|            b mkl
 CP2K| is freely available from                            https://www.cp2k.org/
 CP2K| Program compiled at                           Mon Feb 1 13:14:42 GMT 2021
 CP2K| Program compiled on                                         cirrus-login1
 CP2K| Program compiled for                                           Cirrus-gcc
 CP2K| Data directory path       /lustre/home/w68/hollyj/CP2K/v8.1/cp2k-8.1/data
 CP2K| Input file name                                          CBD_PHY-cp2k.inp

 GLOBAL| Force Environment number                                              1
 GLOBAL| Basis set file name                                        BASIS_MOLOPT
 GLOBAL| Potential file name                                           POTENTIAL
 GLOBAL| MM Potential file name                                     MM_POTENTIAL
 GLOBAL| Coordinate file name                                        CBD_PHY.pdb
 GLOBAL| Method name                                                        CP2K
 GLOBAL| Project name                                                CBD_PHY-PBE
 GLOBAL| Preferred FFT library                                             FFTW3
 GLOBAL| Preferred diagonalization lib.                                     ELPA
 GLOBAL| Run type                                                             MD
 GLOBAL| All-to-all communication in single precision                          F
 GLOBAL| FFTs using library dependent lengths                                  F
 GLOBAL| Global print level                                                  LOW
 GLOBAL| MPI I/O enabled                                                       T
 GLOBAL| Total number of message passing processes                            36
 GLOBAL| Number of threads for this process                                    2
 GLOBAL| This output is from process                                           0
 GLOBAL| CPU model name                Intel(R) Xeon(R) CPU E5-2695 v4 @ 2.10GHz
 GLOBAL| CPUID                                                              1002
 GLOBAL| Compiled for CPUID                                                 1001

 *** HINT in environment.F:802 :: The compiler target flags (x86_avx) used ***
 *** to build this binary cannot exploit all extensions of this CPU model  ***
 *** (x86_avx2). Consider compiler target flags as part of FCFLAGS and     ***
 *** CFLAGS (ARCH file).                                                   ***


 MEMORY| system memory details [Kb]
 MEMORY|                        rank 0           min           max       average
 MEMORY| MemTotal            263692180     263692180     263692180     263692180
 MEMORY| MemFree             258855536     258855536     259115284     258985410
 MEMORY| Buffers                     0             0             0             0
 MEMORY| Cached                1146820        949732       1146820       1048276
 MEMORY| Slab                   932612        873452        932612        903032
 MEMORY| SReclaimable           231688        216468        231688        224078
 MEMORY| MemLikelyFree       260234044     260234044     260281484     260257764



                      ************* ******** ***********   
                     ************* **********************  
                     ****     **** ****      ***********   
                     ******** ****  *******     ****       
                     *******  ****   *******   ****        
                     ****     ****       ****  ****        
                     ****     **** **********  ****        
                      ****     **** ********    ****       
                     FRONTIERS IN SIMULATION TECHNOLOGY    
                                                           
                        C.J. Mundy, S. Balasubramanian,    
                     Ken Bagchi, J. Hutter, Ari Seitsonen  
                      IFW Kuo, T. Laino, J. VandeVondele   
                                 Version 1.0               

                                                           


 EWALD| Summation is done by:                                               SPME
 EWALD| Alpha parameter [       ANGSTROM^-1]                              0.4000
 EWALD| Real Space Cutoff [          ANGSTROM]                            8.4348
 EWALD| G-space max. Miller index                         80        80        80
 EWALD| Spline interpolation order                                             6

 FORCEFIELD| WARNING: A non Critical ForceField parameter is missing! CP2K GOES!
 FORCEFIELD| Non critical parameters are:Urey-Bradley,Torsions,Impropers, Opbends and 1-4
 FORCEFIELD| All missing parameters will not contribute to the potential energy!
 FORCEFIELD| Activate the print key FF_INFO to have a list of missing parameters

 CHARGE_INFO| Total Charge of the Classical System:                    -0.825808

 SPLINE_INFO| Generating 101926 splines for NONBONDED14 interactions 
              Due to 451 different atomic kinds
  ...10192  ...20384  ...30576  ...40768  ...50960  ...61152  ...71344  ...81536  ...91728  ...101920
 SPLINE_INFO| Number of unique splines computed:            301
 SPLINE_INFO| Done

 SPLINE_INFO| Generating 101926 splines for NONBONDED interactions 
              Due to 451 different atomic kinds
  ...10192  ...20384  ...30576  ...40768  ...50960  ...61152  ...71344  ...81536  ...91728  ...101920
 SPLINE_INFO| Number of unique splines computed:            301
 SPLINE_INFO| Done

 *******************************************************************************
 *******************************************************************************
 **                                                                           **
 **     #####                         ##              ##                      **
 **    ##   ##            ##          ##              ##                      **
 **   ##     ##                       ##            ######                    **
 **   ##     ##  ##   ##  ##   #####  ##  ##   ####   ##    #####    #####    **
 **   ##     ##  ##   ##  ##  ##      ## ##   ##      ##   ##   ##  ##   ##   **
 **   ##  ## ##  ##   ##  ##  ##      ####     ###    ##   ######   ######    **
 **    ##  ###   ##   ##  ##  ##      ## ##      ##   ##   ##       ##        **
 **     #######   #####   ##   #####  ##  ##  ####    ##    #####   ##        **
 **           ##                                                    ##        **
 **                                                                           **
 **                                                ... make the atoms dance   **
 **                                                                           **
 **            Copyright (C) by CP2K developers group (2000 - 2020)           **
 **                      J. Chem. Phys. 152, 194103 (2020)                    **
 **                                                                           **
 *******************************************************************************


 TOTAL NUMBERS AND MAXIMUM NUMBERS

  Total number of            - Atomic kinds:                                   5
                             - Atoms:                                         68
                             - Shell sets:                                    68
                             - Shells:                                       274
                             - Primitive Cartesian functions:                476
                             - Cartesian basis functions:                    655
                             - Spherical basis functions:                    620

  Maximum angular momentum of- Orbital basis functions:                        2
                             - Local part of the GTH pseudopotential:          2
                             - Non-local part of the GTH pseudopotential:      0


 SCF PARAMETERS         Density guess:                                   RESTART
                        --------------------------------------------------------
                        max_scf:                                             300
                        max_scf_history:                                       0
                        max_diis:                                              4
                        --------------------------------------------------------
                        eps_scf:                                        1.00E-06
                        eps_scf_history:                                0.00E+00
                        eps_diis:                                       1.00E-01
                        eps_eigval:                                     1.00E-05
                        --------------------------------------------------------
                        level_shift [a.u.]:                                 0.00
                        --------------------------------------------------------
                        No outer SCF

 *******************************************************************************
 *******************************************************************************
 **                                                                           **
 **             #######  ##     ## ##     ## ##     ##                        **
 **            ##     ## ###   ### ###   ### ###   ###                        **
 **            ##     ## #### #### #### #### #### ####                        **
 **            ##     ## ## ### ## ## ### ## ## ### ##                        **
 **            ##  ## ## ##     ## ##     ## ##     ##                        **
 **            ##    ##  ##     ## ##     ## ##     ##  T.Laino and F.Mohamed **
 **             ##### ## ##     ## ##     ## ##     ##  2005 - 2015           **
 **                                                                           **
 **                                                     Calculation Started.. **
 *******************************************************************************
 *******************************************************************************

 MD_PAR| Molecular dynamics protocol (MD input parameters)
 MD_PAR| Ensemble type                                                       NVE
 MD_PAR| Number of time steps                                                  1
 MD_PAR| Time step [fs]                                                 1.000000
 MD_PAR| Temperature [K]                                              300.000000
 MD_PAR| Temperature tolerance [K]                                      0.000000
 MD_PAR| Print MD information every                                    1 step(s)
 MD_PAR| File type   Print frequency [steps]                          File names
 MD_PAR| Coordinates          1                                CBD_PHY-pos-1.xyz
 MD_PAR| Velocities           1                                CBD_PHY-vel-1.xyz
 MD_PAR| Energies             1                                   CBD_PHY-1.ener
 MD_PAR| Dump                20                                CBD_PHY-1.restart

 ROT| Rotational analysis information
 ROT| Principal axes and moments of inertia [a.u.]
 ROT|                           1                   2                   3
 ROT| Eigenvalues      1.56283164001E+13   1.56407408488E+13   1.56663418804E+13
 ROT|      x              0.901637047331     -0.018153263569      0.432112362589
 ROT|      y              0.323714777231      0.690893927917     -0.646431994389
 ROT|      z             -0.286808957117      0.722728191915      0.628812040859
 ROT| Number of rotovibrational vectors                                        6

 DOF| Calculation of degrees of freedom
 DOF| Number of atoms                                                     167923
 DOF| Number of intramolecular constraints                                     0
 DOF| Number of intermolecular constraints                                     0
 DOF| Invariants (translations + rotations)                                    3
 DOF| Degrees of freedom                                                  503766

 DOF| Restraints information
 DOF| Number of intramolecular restraints                                      0
 DOF| Number of intermolecular restraints                                      0

 MD_VEL| Velocities initialization
 MD_VEL| Initial temperature [K]                                      300.000000
 MD_VEL| COM velocity            -0.0000000000     0.0000000000     0.0000000000

  Translating the system in order to center the QM fragment in the QM box.

 Number of electrons:                                                        180
 Number of occupied orbitals:                                                 90
 Number of molecular orbitals:                                                90

 Number of orbital functions:                                                620
 Number of independent orbital functions:                                    620

 Extrapolation method: initial_guess


 SCF WAVEFUNCTION OPTIMIZATION

  ----------------------------------- OT ---------------------------------------
  Minimizer      : DIIS                : direct inversion
                                         in the iterative subspace
                                         using   7 DIIS vectors
                                         safer DIIS on
  Preconditioner : FULL_ALL            : diagonalization, state selective
  Precond_solver : DEFAULT
  stepsize       :    0.15000000                  energy_gap     :    0.08000000
  eps_taylor     :   0.10000E-15                  max_taylor     :             4
  ----------------------------------- OT ---------------------------------------

  Step     Update method      Time    Convergence         Total energy    Change
  ------------------------------------------------------------------------------
  Decoupling Energy:                                               0.0370860464
  Recoupling Energy:                                              -0.0063743249
     1 OT DIIS     0.15E+00    2.0     0.00000956      -256.0303948150 -2.56E+02
  Decoupling Energy:                                               0.0370861671
  Recoupling Energy:                                              -0.0063743255
     2 OT DIIS     0.15E+00    2.8     0.00000478      -256.0303953084 -4.93E-07
  Decoupling Energy:                                               0.0370856321
  Recoupling Energy:                                              -0.0063743196
     3 OT DIIS     0.15E+00    2.8     0.00000528      -256.0303953641 -5.57E-08
  Decoupling Energy:                                               0.0370861329
  Recoupling Energy:                                              -0.0063743252
     4 OT DIIS     0.15E+00    2.8     0.00000149      -256.0303954148 -5.07E-08
  Decoupling Energy:                                               0.0370859327
  Recoupling Energy:                                              -0.0063743228
     5 OT DIIS     0.15E+00    2.8     0.00000020      -256.0303954185 -3.64E-09

  *** SCF run converged in     5 steps ***


  Electronic density on regular grids:       -179.9999999994        0.0000000006
  Core density on regular grids:              180.9999999999       -0.0000000001
  Total charge density on r-space grids:        1.0000000005
  Total charge density g-space grids:           1.0000000005

  Overlap energy of the core charge distribution:               0.00001951532734
  Self energy of the core charge distribution:               -615.71576003586028
  Core Hamiltonian energy:                                    191.69815017914857
  Hartree energy:                                             247.57404818333163
  Exchange-correlation energy:                                -79.63275540309817
  QM/MM Electrostatic energy:                                   0.04590214267556

  Total energy:                                              -256.03039541847534
  Decoupling Energy:                                               0.0370859742
  Recoupling Energy:                                              -0.0063743233

 ENERGY| Total FORCE_EVAL ( QMMM ) energy [a.u.]:          -1088.195362349174502

 MD_INI| MD initialization
 MD_INI| Potential energy [hartree]                          -0.108819536235E+04
 MD_INI| Total kinetic energy [hartree]                       0.239300084734E+03
 MD_INI| QM kinetic energy [hartree]                          0.106639360339E+00
 MD_INI| Total temperature [K]                                        300.000000
 MD_INI| QM temperature [K]                                           330.137318
 MD_INI| Cell volume [bohr^3]                                 1.137316355424E+07
 MD_INI| Cell volume [ang^3]                                  1.685328937712E+06
 MD_INI| Cell lengths [bohr]      2.24884969E+02  2.24884969E+02  2.24884969E+02
 MD_INI| Cell lengths [ang]       1.19004000E+02  1.19004000E+02  1.19004000E+02
 MD_INI| Cell angles [deg]        9.00000000E+01  9.00000000E+01  9.00000000E+01

  Translating the system in order to center the QM fragment in the QM box.

 Number of electrons:                                                        180
 Number of occupied orbitals:                                                 90
 Number of molecular orbitals:                                                90

 Number of orbital functions:                                                620
 Number of independent orbital functions:                                    620

 Extrapolation method: ASPC


 SCF WAVEFUNCTION OPTIMIZATION

  ----------------------------------- OT ---------------------------------------
  Minimizer      : DIIS                : direct inversion
                                         in the iterative subspace
                                         using   7 DIIS vectors
                                         safer DIIS on
  Preconditioner : FULL_ALL            : diagonalization, state selective
  Precond_solver : DEFAULT
  stepsize       :    0.15000000                  energy_gap     :    0.08000000
  eps_taylor     :   0.10000E-15                  max_taylor     :             4
  ----------------------------------- OT ---------------------------------------

  Step     Update method      Time    Convergence         Total energy    Change
  ------------------------------------------------------------------------------
  Decoupling Energy:                                               0.0371104022
  Recoupling Energy:                                              -0.0063745549
     1 OT DIIS     0.15E+00    1.9     0.00092537      -255.8029313664 -2.56E+02
  Decoupling Energy:                                               0.0371210912
  Recoupling Energy:                                              -0.0063746935
     2 OT DIIS     0.15E+00    2.8     0.00041587      -255.8072240309 -4.29E-03
  Decoupling Energy:                                               0.0371277539
  Recoupling Energy:                                              -0.0063747955
     3 OT DIIS     0.15E+00    2.7     0.00037228      -255.8077199026 -4.96E-04
  Decoupling Energy:                                               0.0371212858
  Recoupling Energy:                                              -0.0063746999
     4 OT DIIS     0.15E+00    2.8     0.00014957      -255.8079919835 -2.72E-04
  Decoupling Energy:                                               0.0371369486
  Recoupling Energy:                                              -0.0063748858
     5 OT DIIS     0.15E+00    2.8     0.00004923      -255.8080296610 -3.77E-05
  Decoupling Energy:                                               0.0371276795
  Recoupling Energy:                                              -0.0063747811
     6 OT DIIS     0.15E+00    2.8     0.00001779      -255.8080336536 -3.99E-06
  Decoupling Energy:                                               0.0371313106
  Recoupling Energy:                                              -0.0063748226
     7 OT DIIS     0.15E+00    2.8     0.00000735      -255.8080342019 -5.48E-07
  Decoupling Energy:                                               0.0371301428
  Recoupling Energy:                                              -0.0063748095
     8 OT DIIS     0.15E+00    2.8     0.00000183      -255.8080343031 -1.01E-07
  Decoupling Energy:                                               0.0371306206
  Recoupling Energy:                                              -0.0063748146
     9 OT DIIS     0.15E+00    2.8     0.00000127      -255.8080343088 -5.75E-09
  Decoupling Energy:                                               0.0371304192
  Recoupling Energy:                                              -0.0063748126
    10 OT DIIS     0.15E+00    2.8     0.00000040      -255.8080343116 -2.80E-09

  *** SCF run converged in    10 steps ***


  Electronic density on regular grids:       -180.0000000001       -0.0000000001
  Core density on regular grids:              180.9999999999       -0.0000000001
  Total charge density on r-space grids:        0.9999999998
  Total charge density g-space grids:           0.9999999998

  Overlap energy of the core charge distribution:               0.00002367605264
  Self energy of the core charge distribution:               -615.71576003586028
  Core Hamiltonian energy:                                    191.83715151661616
  Hartree energy:                                             247.48551244247739
  Exchange-correlation energy:                                -79.67126388747261
  QM/MM Electrostatic energy:                                   0.25630197654833

  Total energy:                                              -255.80803431163847
  Decoupling Energy:                                               0.0371304353
  Recoupling Energy:                                              -0.0063748127

 ENERGY| Total FORCE_EVAL ( QMMM ) energy [a.u.]:          -1060.045711407064346

 MD| ***************************************************************************
 MD| Step number                                                               1
 MD| Time [fs]                                                          1.000000
 MD| Conserved quantity [hartree]                            -0.841545612460E+03
 MD| ---------------------------------------------------------------------------
 MD|                                          Instantaneous             Averages
 MD| CPU time per MD step [s]                    164.022952           164.022952
 MD| Energy drift per atom [K]           0.138208460223E+02   0.000000000000E+00
 MD| Potential energy [hartree]         -0.106004571141E+04  -0.106004571141E+04
 MD| Total kinetic energy [hartree]      0.218500098947E+03   0.218500098947E+03
 MD| QM kinetic energy [hartree]         0.120537396471E+00   0.120537396471E+00
 MD| Total temperature [K]                       273.923972           273.923972
 MD| QM temperature [K]                          373.163274           373.163274
 MD| ***************************************************************************

 -------------------------------------------------------------------------------
 -                                                                             -
 -                                DBCSR STATISTICS                             -
 -                                                                             -
 -------------------------------------------------------------------------------
 COUNTER                                    TOTAL       BLAS       SMM       ACC
 flops     5 x    26 x    26               446160       0.0%    100.0%      0.0%
 flops    13 x    26 x    26              1230320       0.0%    100.0%      0.0%
 flops     5 x    32 x    32              1351680       0.0%    100.0%      0.0%
 flops    26 x    26 x    26              3409744       0.0%    100.0%      0.0%
 flops    13 x    32 x    32              3727360       0.0%    100.0%      0.0%
 flops    46 x    26 x    26              4664400       0.0%    100.0%      0.0%
 flops    59 x    26 x    26              5982600       0.0%    100.0%      0.0%
 flops    26 x    26 x    32              8393216       0.0%    100.0%      0.0%
 flops    26 x    32 x    26              8393216       0.0%    100.0%      0.0%
 flops    32 x    26 x    26              8393216       0.0%    100.0%      0.0%
 flops    46 x    26 x   105              8539440       0.0%    100.0%      0.0%
 flops    26 x    26 x   105              8801520       0.0%    100.0%      0.0%
 flops    49 x    26 x    26              9937200       0.0%    100.0%      0.0%
 flops    54 x    26 x    26             10951200       0.0%    100.0%      0.0%
 flops    36 x    26 x    26             10951200       0.0%    100.0%      0.0%
 flops    59 x    26 x   105             10952760       0.0%    100.0%      0.0%
 flops    46 x    26 x    32             11481600       0.0%    100.0%      0.0%
 flops    46 x    32 x    26             11481600       0.0%    100.0%      0.0%
 flops     5 x     5 x    26             13856700       0.0%    100.0%      0.0%
 flops    59 x    26 x    32             14726400       0.0%    100.0%      0.0%
 flops    59 x    32 x    26             14726400       0.0%    100.0%      0.0%
 flops    49 x    26 x   105             18192720       0.0%    100.0%      0.0%
 flops    54 x    26 x   105             20049120       0.0%    100.0%      0.0%
 flops    36 x    26 x   105             20049120       0.0%    100.0%      0.0%
 flops    67 x    26 x    26             20381400       0.0%    100.0%      0.0%
 flops    32 x    32 x    26             20660224       0.0%    100.0%      0.0%
 flops    26 x    32 x    32             20660224       0.0%    100.0%      0.0%
 flops    32 x    26 x    32             20660224       0.0%    100.0%      0.0%
 flops    46 x    32 x   105             21020160       0.0%    100.0%      0.0%
 flops    26 x    32 x   105             21665280       0.0%    100.0%      0.0%
 flops    32 x    26 x   105             21665280       0.0%    100.0%      0.0%
 flops    49 x    32 x    26             24460800       0.0%    100.0%      0.0%
 flops    49 x    26 x    32             24460800       0.0%    100.0%      0.0%
 flops    54 x    32 x    26             26956800       0.0%    100.0%      0.0%
 flops    54 x    26 x    32             26956800       0.0%    100.0%      0.0%
 flops    36 x    26 x    32             26956800       0.0%    100.0%      0.0%
 flops    36 x    32 x    26             26956800       0.0%    100.0%      0.0%
 flops    59 x    32 x   105             26960640       0.0%    100.0%      0.0%
 flops    46 x    32 x    32             28262400       0.0%    100.0%      0.0%
 flops     5 x     5 x    32             34108800       0.0%    100.0%      0.0%
 flops    59 x    32 x    32             36249600       0.0%    100.0%      0.0%
 flops    13 x     5 x    26             37054940       0.0%    100.0%      0.0%
 flops     5 x    13 x    26             37119160       0.0%    100.0%      0.0%
 flops    67 x    26 x   105             37313640       0.0%    100.0%      0.0%
 flops    46 x    26 x   103             41883920       0.0%    100.0%      0.0%
 flops    26 x    26 x   103             43169360       0.0%    100.0%      0.0%
 flops    49 x    32 x   105             44782080       0.0%    100.0%      0.0%
 flops    54 x    32 x   105             49351680       0.0%    100.0%      0.0%
 flops    36 x    32 x   105             49351680       0.0%    100.0%      0.0%
 flops    67 x    26 x    32             50169600       0.0%    100.0%      0.0%
 flops    67 x    32 x    26             50169600       0.0%    100.0%      0.0%
 flops    32 x    32 x    32             50855936       0.0%    100.0%      0.0%
 flops    32 x    32 x   105             53329920       0.0%    100.0%      0.0%
 flops    59 x    26 x   103             53720680       0.0%    100.0%      0.0%
 flops    49 x    32 x    32             60211200       0.0%    100.0%      0.0%
 flops     5 x    26 x     5             62290800       0.0%    100.0%      0.0%
 flops    54 x    32 x    32             66355200       0.0%    100.0%      0.0%
 flops    36 x    32 x    32             66355200       0.0%    100.0%      0.0%
 flops    49 x    26 x   103             89230960       0.0%    100.0%      0.0%
 flops    13 x     5 x    32             91212160       0.0%    100.0%      0.0%
 flops     5 x    13 x    32             91370240       0.0%    100.0%      0.0%
 flops    67 x    32 x   105             91848960       0.0%    100.0%      0.0%
 flops    54 x    26 x   103             98336160       0.0%    100.0%      0.0%
 flops    36 x    26 x   103             98336160       0.0%    100.0%      0.0%
 flops    46 x    32 x   103            103098880       0.0%    100.0%      0.0%
 flops    13 x    13 x    26            105192360       0.0%    100.0%      0.0%
 flops    26 x    32 x   103            106263040       0.0%    100.0%      0.0%
 flops    32 x    26 x   103            106263040       0.0%    100.0%      0.0%
 flops    67 x    32 x    32            123494400       0.0%    100.0%      0.0%
 flops    59 x    32 x   103            132235520       0.0%    100.0%      0.0%
 flops     5 x    32 x     5            153331200       0.0%    100.0%      0.0%
 flops    13 x    26 x     5            171771600       0.0%    100.0%      0.0%
 flops     5 x    26 x    13            171771600       0.0%    100.0%      0.0%
 flops    67 x    26 x   103            183014520       0.0%    100.0%      0.0%
 flops    49 x    32 x   103            219645440       0.0%    100.0%      0.0%
 flops    54 x    32 x   103            242058240       0.0%    100.0%      0.0%
 flops    36 x    32 x   103            242058240       0.0%    100.0%      0.0%
 flops    13 x    13 x    32            258935040       0.0%    100.0%      0.0%
 flops    32 x    32 x   103            261570560       0.0%    100.0%      0.0%
 flops     5 x    32 x    13            422822400       0.0%    100.0%      0.0%
 flops    13 x    32 x     5            422822400       0.0%    100.0%      0.0%
 flops    67 x    32 x   103            450497280       0.0%    100.0%      0.0%
 flops    13 x    26 x    13            473673200       0.0%    100.0%      0.0%
 flops    13 x    32 x    13           1165964800       0.0%    100.0%      0.0%
 flops inhomo. stacks                           0       0.0%      0.0%      0.0%
 flops total                         7.590035E+09       0.0%    100.0%      0.0%
 flops max/rank                    480.400248E+06       0.0%    100.0%      0.0%
 matmuls inhomo. stacks                         0       0.0%      0.0%      0.0%
 matmuls total                             765909       0.0%    100.0%      0.0%
 number of processed stacks                 75075       0.0%    100.0%      0.0%
 average stack size                                     0.0      10.2       0.0
 marketing flops                     8.269253E+09
 -------------------------------------------------------------------------------
 # multiplications                            335
 max memory usage/rank               1.886331E+09
 # max total images/rank                        1
 # max 3D layers                                1
 # MPI messages exchanged                  120600
 MPI messages size (bytes):
  total size                         1.994246E+09
  min size                           0.000000E+00
  max size                          88.200000E+03
  average size                      16.536035E+03
 MPI breakdown and total messages size (bytes):
             size <=      128               65895                        0
       128 < size <=     8192               12135                 87373920
      8192 < size <=    32768               28530                707544000
     32768 < size <=   131072               14040               1199328000
    131072 < size <=  4194304                   0                        0
   4194304 < size <= 16777216                   0                        0
  16777216 < size                               0                        0
 -------------------------------------------------------------------------------
 -                                                                             -
 -                      DBCSR MESSAGE PASSING PERFORMANCE                      -
 -                                                                             -
 -------------------------------------------------------------------------------
 ROUTINE             CALLS      AVE VOLUME [Bytes]
 MP_Bcast               85                     12.
 MP_Allreduce         1930                     10.
 MP_Alltoall          1377                   7183.
 MP_ISend             8032                   9439.
 MP_IRecv             8032                   8815.
 -------------------------------------------------------------------------------

 -------------------------------------------------------------------------------
 -                                                                             -
 -                                GRID STATISTICS                              -
 -                                                                             -
 -------------------------------------------------------------------------------
 LP    KERNEL             BACKEND                              COUNT     PERCENT
 3     collocate ortho    REF                                 542648      23.86%
 3     integrate ortho    REF                                 509386      22.40%
 4     integrate ortho    REF                                 354648      15.60%
 4     collocate ortho    REF                                 329583      14.49%
 2     collocate ortho    REF                                 259911      11.43%
 2     integrate ortho    REF                                 229335      10.08%
 5     integrate ortho    REF                                  38773       1.71%
 0     collocate general  REF                                   4896       0.22%
 1     integrate general  REF                                   4896       0.22%
 -------------------------------------------------------------------------------

 MEMORY| Estimated peak process memory [MiB]                                1803

 -------------------------------------------------------------------------------
 -                                                                             -
 -                         MESSAGE PASSING PERFORMANCE                         -
 -                                                                             -
 -------------------------------------------------------------------------------

 ROUTINE             CALLS      AVE VOLUME [Bytes]
 MP_Group                8
 MP_Bcast             6710               10972349.
 MP_Allreduce          965                1212485.
 MP_Sync                 7
 MP_Alltoall           365               31548906.
 MP_ISendRecv         2380                  89600.
 MP_Wait              4142
 MP_ISend             1442                 965730.
 MP_IRecv             1440                 965973.
 MP_Recv                10                  74400.
 -------------------------------------------------------------------------------


 -------------------------------------------------------------------------------
 -                                                                             -
 -                           R E F E R E N C E S                               -
 -                                                                             -
 -------------------------------------------------------------------------------
 
 CP2K version 8.1, the CP2K developers group (2020).
 CP2K is freely available from https://www.cp2k.org/ .

 Kuehne,Thomas D.; Iannuzzi,Marcella; Del Ben,Mauro;
 Rybkin,Vladimir V.; Seewald,Patrick; Stein,Frederick; Laino,Teodoro;
 Khaliullin,Rustam Z.; Schuett,Ole; Schiffmann,Florian; Golze,Dorothea;
 Wilhelm,Jan; Chulkov,Sergey; Bani-Hashemian,Mohammad Hossein;
 Weber,Valery; Borstnik,Urban; Taillefumier,Mathieu;
 Jakobovits,Alice Shoshana; Lazzaro,Alfio; Pabst,Hans; Mueller,Tiziano;
 Schade,Robert; Guidon,Manuel; Andermatt,Samuel; Holmberg,Nico;
 Schenter,Gregory K.; Hehn,Anna; Bussy,Augustin; Belleflamme,Fabian;
 Tabacchi,Gloria; Gloess,Andreas; Lass,Michael; Bethune,Iain;
 Mundy,Christopher J.; Plessl,Christian; Watkins,Matt;
 VandeVondele,Joost; Krack,Matthias; Hutter,Juerg. 
 The Journal of Chemical Physics, 152 (19), (2020). 
 CP2K: An electronic structure and molecular dynamics software package -
 Quickstep: Efficient and accurate electronic structure calculations.
 https://doi.org/10.1063/5.0007045

 Schuett, Ole; Messmer, Peter; Hutter, Juerg; VandeVondele, Joost. 
 Electronic Structure Calculations on Graphics Processing Units, John
 Wiley & Sons, Ltd, 173-190 (2016). 
 GPU-Accelerated Sparse Matrix-Matrix Multiplication for
 Linear Scaling Density Functional Theory.
 https://doi.org/10.1002/9781118670712.ch8

 Borstnik, U; VandeVondele, J; Weber, V; Hutter, J. 
 PARALLEL COMPUTING, 40 (5-6), 47-58 (2014). 
 Sparse matrix multiplication: The distributed block-compressed sparse
 row library.
 https://doi.org/10.1016/j.parco.2014.03.012

 Hutter, J; Iannuzzi, M; Schiffmann, F; VandeVondele, J. 
 WIREs Comput Mol Sci., 4 (1), 15-25 (2014). 
 CP2K: atomistic simulations of condensed matter systems.
 https://doi.org/10.1002/wcms.1159

 Marek, A; Blum, V; Johanni, R; Havu, V; Lang, B; Auckenthaler, T;
 Heinecke, A; Bungartz, H; Lederer, H. 
 Journal of Physics: Condensed Matter, 26 (21), (2014). 
 The ELPA library: scalable parallel eigenvalue solutions for
 electronic structure
 theory and computational science.
 https://doi.org/10.1088/0953-8984/26/21/213201

 VandeVondele, J; Hutter, J. 
 JOURNAL OF CHEMICAL PHYSICS, 127 (11), 114105 (2007). 
 Gaussian basis sets for accurate calculations on molecular systems in
 gas and condensed phases.
 https://doi.org/10.1063/1.2770708

 Kuhne, TD; Krack, M; Mohamed, FR; Parrinello, M. 
 PHYSICAL REVIEW LETTERS, 98 (6), 066401 (2007). 
 Efficient and accurate Car-Parrinello-like approach to
 Born-Oppenheimer molecular dynamics.
 https://doi.org/10.1103/PhysRevLett.98.066401

 Laino, T; Mohamed, F; Laio, A; Parrinello, M. 
 JOURNAL OF CHEMICAL THEORY AND COMPUTATION, 2 (5), 1370-1378 (2006). 
 An efficient linear-scaling electrostatic coupling for treating
 periodic boundary conditions in QM/MM simulations.
 https://doi.org/10.1021/ct6001169

 Laino, T; Mohamed, F; Laio, A; Parrinello, M. 
 JOURNAL OF CHEMICAL THEORY AND COMPUTATION, 1 (6), 1176-1184 (2005). 
 An efficient real space multigrid QM/MM electrostatic coupling.
 https://doi.org/10.1021/ct050123f

 Krack, M. 
 THEORETICAL CHEMISTRY ACCOUNTS, 114 (1-3), 145-152 (2005). 
 Pseudopotentials for H to Kr optimized for gradient-corrected
 exchange-correlation functionals.
 https://doi.org/10.1007/s00214-005-0655-y

 VandeVondele, J; Krack, M; Mohamed, F; Parrinello, M; Chassaing, T;
 Hutter, J. COMPUTER PHYSICS COMMUNICATIONS, 167 (2), 103-128 (2005). 
 QUICKSTEP: Fast and accurate density functional calculations using a
 mixed Gaussian and plane waves approach.
 https://doi.org/10.1016/j.cpc.2004.12.014

 Frigo, M; Johnson, SG. 
 PROCEEDINGS OF THE IEEE, 93 (2), 216-231 (2005). 
 The design and implementation of FFTW3.
 https://doi.org/10.1109/JPROC.2004.840301

 Kolafa, J. 
 JOURNAL OF COMPUTATIONAL CHEMISTRY, 25 (3), 335-342 (2004). 
 Time-reversible always stable predictor-corrector method for molecular dynamics of polarizable molecules.
 https://doi.org/10.1002/jcc.10385

 VandeVondele, J; Hutter, J. 
 JOURNAL OF CHEMICAL PHYSICS, 118 (10), 4365-4369 (2003). 
 An efficient orbital transformation method for electronic structure
 calculations.
 https://doi.org/10.1063/1.1543154

 Hartwigsen, C; Goedecker, S; Hutter, J. 
 PHYSICAL REVIEW B, 58 (7), 3641-3662 (1998). 
 Relativistic separable dual-space Gaussian pseudopotentials from H to Rn.
 https://doi.org/10.1103/PhysRevB.58.3641

 Lippert, G; Hutter, J; Parrinello, M. 
 MOLECULAR PHYSICS, 92 (3), 477-487 (1997). 
 A hybrid Gaussian and plane wave density functional scheme.
 https://doi.org/10.1080/002689797170220

 Perdew, JP; Burke, K; Ernzerhof, M. 
 PHYSICAL REVIEW LETTERS, 77 (18), 3865-3868 (1996). 
 Generalized gradient approximation made simple.
 https://doi.org/10.1103/PhysRevLett.77.3865

 Goedecker, S; Teter, M; Hutter, J. 
 PHYSICAL REVIEW B, 54 (3), 1703-1710 (1996). 
 Separable dual-space Gaussian pseudopotentials.
 https://doi.org/10.1103/PhysRevB.54.1703

 ESSMANN, U; PERERA, L; BERKOWITZ, ML; DARDEN, T; LEE, H; PEDERSEN, LG. 
 JOURNAL OF CHEMICAL PHYSICS, 103 (19), 8577-8593 (1995). 
 A SMOOTH PARTICLE MESH EWALD METHOD.
 https://doi.org/10.1063/1.470117

 BLOCHL, PE. 
 JOURNAL OF CHEMICAL PHYSICS, 103 (17), 7422-7428 (1995). 
 ELECTROSTATIC DECOUPLING OF PERIODIC IMAGES OF PLANE-WAVE-EXPANDED
 DENSITIES AND DERIVED ATOMIC POINT CHARGES.
 https://doi.org/10.1063/1.470314


 -------------------------------------------------------------------------------
 -                                                                             -
 -                                T I M I N G                                  -
 -                                                                             -
 -------------------------------------------------------------------------------
 SUBROUTINE                       CALLS  ASD         SELF TIME        TOTAL TIME
                                MAXIMUM       AVERAGE  MAXIMUM  AVERAGE  MAXIMUM
 CP2K                                 1  1.0    0.387    0.412  223.509  223.510
 qs_mol_dyn_low                       1  2.0    0.012    0.013  165.286  167.290
 velocity_verlet                      1  3.0    0.008    0.009   88.114   88.130
 qmmm_forces                          2  3.5    0.013    0.014   63.292   63.293
 qmmm_forces_with_gaussian            2  4.5    0.019    0.022   61.959   62.786
 qmmm_env_create                      1  2.0   14.408   14.973   55.773   55.782
 qmmm_force_with_gaussian_low         2  5.5    0.000    0.000   48.702   49.434
 qmmm_el_coupling                     2  3.5    0.000    0.000   48.622   48.817
 qmmm_elec_with_gaussian              2  4.5    0.009    0.011   48.619   48.814
 qs_forces                            2  3.5    0.000    0.001   48.333   48.336
 qs_energies                          2  4.5    0.000    0.000   44.101   44.104
 qmmm_forces_gaussian_low_R           2  6.5    0.000    0.000   41.355   41.845
 qmmm_forces_with_gaussian_LG         2  7.5   41.355   41.845   41.355   41.845
 scf_env_do_scf                       2  5.5    0.000    0.000   41.651   41.651
 scf_env_do_scf_inner_loop           15  6.7    0.000    0.001   37.742   37.769
 qmmm_elec_with_gaussian_low          2  5.5    0.000    0.000   35.435   37.043
 fist_init                            1  3.0    0.000    0.000   36.545   36.546
 rebuild_ks_matrix                   17  8.3    0.000    0.000   31.566   31.568
 qs_ks_build_kohn_sham_matrix        17  9.3    0.003    0.003   31.566   31.568
 qmmm_elec_gaussian_low_R             2  6.5    0.000    0.000   28.318   28.861
 qmmm_elec_with_gaussian_LG           2  7.5   28.318   28.861   28.318   28.861
 qs_ks_update_qs_env                 17  7.6    0.000    0.000   27.501   27.503
 pw_transfer                        362 11.8    0.028    0.040   21.974   23.111
 fft_wrap_pw1pw2                    301 12.9    0.004    0.006   21.641   22.778
 fft_wrap_pw1pw2_200                191 14.2    1.529    1.610   21.193   22.356
 force_field_control                  1  4.0    0.000    0.000   20.561   20.848
 fft3d_ps                           301 14.9    8.998    9.398   17.156   18.289
 rdparm_amber_8                       2  6.5   14.226   15.254   18.084   18.189
 qs_vxc_create                       17 10.3    0.000    0.001   17.119   17.126
 xc_vxc_pw_create                    17 11.3    0.136    0.167   17.119   17.125
 topology_control                     1  4.0    0.000    0.000   15.762   16.789
 qs_rho_update_rho                   17  7.7    0.000    0.000   15.440   15.440
 calculate_rho_elec                  17  8.7    0.075    0.080   15.440   15.440
 density_rs2pw                       17  9.7    0.001    0.001   12.304   13.447
 force_field_pack                     1  5.0    0.020    0.022   11.775   11.984
 pw_restrict_s3                       6  5.5    3.442    3.593   11.393   11.684
 rs_pw_transfer                     148 11.6    0.002    0.003   10.103   11.256
 sum_up_and_integrate                17 10.3    0.051    0.058   10.767   10.782
 integrate_v_rspace                  17 11.3    0.001    0.001   10.716   10.729
 grid_collocate_task_list            17  9.7    3.018   10.378    3.018   10.378
 pw_integral_ab                     899  6.9    9.828    9.985    9.884   10.034
 mp_sum_dm3                          13  5.2    9.020    9.804    9.020    9.804
 connectivity_control                 2  4.0    0.000    0.001    9.633    9.645
 mp_waitany                        1440 13.2    8.231    9.551    8.231    9.551
 read_connectivity_amber              1  6.0    0.000    0.000    9.435    9.446
 rs_pw_transfer_RS2PW_200            19 11.5    0.342    0.409    7.907    9.017
 xc_rho_set_and_dset_create          17 12.3    0.077    0.085    8.309    9.003
 qmmm_elec_with_gaussian:spline       2  5.5    0.000    0.000    8.675    8.870
 pw_prolongate_s3                     6  6.5    2.596    2.713    8.675    8.870
 read_force_field_amber               1  5.0    0.012    0.014    8.661    8.766
 force_field_pack_splines             2  6.0    0.024    0.025    8.256    8.417
 qmmm_elec_gaussian_low_G             2  6.5    7.116    8.346    7.116    8.346
 get_nonbond_storage                  2  7.0    0.254    0.272    7.898    8.057
 qmmm_forces_gaussian_low_G           2  6.5    7.346    7.942    7.346    7.942
 set_potparm_index                  602  8.0    0.373    0.379    7.644    7.808
 init_genpot                        604  9.0    7.292    7.444    7.292    7.444
 mp_alltoall_z22v                   301 16.9    6.141    7.336    6.141    7.336
 grid_integrate_task_list            17 12.3    1.426    6.887    1.426    6.887
 mp_alltoall_d11v                   363 13.2    5.489    6.363    5.489    6.363
 rs_gather_matrices                  17 12.3    0.001    0.002    5.471    6.344
 yz_to_x                            140 15.5    0.701    0.806    3.981    5.092
 topology_coordinate_pack             2  4.0    0.000    0.000    4.045    5.073
 topology_coordinate_pack_11          2  5.0    3.752    4.779    3.752    4.779
 -------------------------------------------------------------------------------

 The number of warnings for this run is : 0
 
 -------------------------------------------------------------------------------
  **** **** ******  **  PROGRAM ENDED AT                 2021-02-26 11:44:09.997
 ***** ** ***  *** **   PROGRAM RAN ON                                    r1i6n2
 **    ****   ******    PROGRAM RAN BY                                    hollyj
 ***** **    ** ** **   PROGRAM PROCESS ID                                   452
  **** **  *******  **  PROGRAM STOPPED IN /lustre/home/w68/hollyj/CP2K/Cirrus/C
                                           PU/cp2kMD/CBD_PHY/1STEPS/2NODES/36CPN
                                           /2THREADS
