 DBCSR| CPU Multiplication driver                                           XSMM
 DBCSR| Multrec recursion limit                                              512
 DBCSR| Multiplication stack size                                           1000
 DBCSR| Maximum elements for images                                    UNLIMITED
 DBCSR| Multiplicative factor virtual images                                   1
 DBCSR| Use multiplication densification                                       T
 DBCSR| Multiplication size stacks                                             3
 DBCSR| Use memory pool for CPU allocation                                     F
 DBCSR| Number of 3D layers                                               SINGLE
 DBCSR| Use MPI memory allocation                                              F
 DBCSR| Use RMA algorithm                                                      F
 DBCSR| Use Communication thread                                               T
 DBCSR| Communication thread load                                             87
 DBCSR| MPI: My node id                                                        0
 DBCSR| MPI: Number of nodes                                                 288
 DBCSR| OMP: Current number of threads                                         1
 DBCSR| OMP: Max number of threads                                             1
 DBCSR| Split modifier for TAS multiplication algorithm                  1.0E+00


  **** **** ******  **  PROGRAM STARTED AT               2021-04-19 14:27:01.342
 ***** ** ***  *** **   PROGRAM STARTED ON                                r1i1n8
 **    ****   ******    PROGRAM STARTED BY                                hollyj
 ***** **    ** ** **   PROGRAM PROCESS ID                                 21590
  **** **  *******  **  PROGRAM STARTED IN /lustre/home/w68/hollyj/CP2K/Cirrus/C
                                           PU/cp2kMD/CBD_PHY-PBE0/6STEPS/8NODES/
                                           36CPN/1THREADS

 CP2K| version string:                                          CP2K version 8.1
 CP2K| source code revision number:                                  git:0b61f2f
 CP2K| cp2kflags: omp libint fftw3 libxc elpa parallel mpi3 scalapack xsmm spgli
 CP2K|            b mkl
 CP2K| is freely available from                            https://www.cp2k.org/
 CP2K| Program compiled at                           Mon Feb 1 13:14:42 GMT 2021
 CP2K| Program compiled on                                         cirrus-login1
 CP2K| Program compiled for                                           Cirrus-gcc
 CP2K| Data directory path       /lustre/home/w68/hollyj/CP2K/v8.1/cp2k-8.1/data
 CP2K| Input file name                                          CBD_PHY-cp2k.inp

 GLOBAL| Force Environment number                                              1
 GLOBAL| Basis set file name                                           HFX_BASIS
 GLOBAL| Potential file name                                           POTENTIAL
 GLOBAL| MM Potential file name                                     MM_POTENTIAL
 GLOBAL| Coordinate file name                                        CBD_PHY.pdb
 GLOBAL| Method name                                                        CP2K
 GLOBAL| Project name                                               CBD_PHY-PBE0
 GLOBAL| Preferred FFT library                                             FFTW3
 GLOBAL| Preferred diagonalization lib.                                     ELPA
 GLOBAL| Run type                                                             MD
 GLOBAL| All-to-all communication in single precision                          F
 GLOBAL| FFTs using library dependent lengths                                  F
 GLOBAL| Global print level                                                  LOW
 GLOBAL| MPI I/O enabled                                                       T
 GLOBAL| Total number of message passing processes                           288
 GLOBAL| Number of threads for this process                                    1
 GLOBAL| This output is from process                                           0
 GLOBAL| CPU model name                Intel(R) Xeon(R) CPU E5-2695 v4 @ 2.10GHz
 GLOBAL| CPUID                                                              1002
 GLOBAL| Compiled for CPUID                                                 1001

 *** HINT in environment.F:802 :: The compiler target flags (x86_avx) used ***
 *** to build this binary cannot exploit all extensions of this CPU model  ***
 *** (x86_avx2). Consider compiler target flags as part of FCFLAGS and     ***
 *** CFLAGS (ARCH file).                                                   ***


 MEMORY| system memory details [Kb]
 MEMORY|                        rank 0           min           max       average
 MEMORY| MemTotal            263692180     263692172     263692180     263692178
 MEMORY| MemFree             258294072     258294072     258807660     258582344
 MEMORY| Buffers                     0             0             0             0
 MEMORY| Cached                 780248        513220        780248        574784
 MEMORY| Slab                   985412        892808        985412        940201
 MEMORY| SReclaimable           219244        205972        230460        218782
 MEMORY| MemLikelyFree       259293564     259266228     259526852     259375910



                      ************* ******** ***********   
                     ************* **********************  
                     ****     **** ****      ***********   
                     ******** ****  *******     ****       
                     *******  ****   *******   ****        
                     ****     ****       ****  ****        
                     ****     **** **********  ****        
                      ****     **** ********    ****       
                     FRONTIERS IN SIMULATION TECHNOLOGY    
                                                           
                        C.J. Mundy, S. Balasubramanian,    
                     Ken Bagchi, J. Hutter, Ari Seitsonen  
                      IFW Kuo, T. Laino, J. VandeVondele   
                                 Version 1.0               

                                                           


 EWALD| Summation is done by:                                               SPME
 EWALD| Alpha parameter [       ANGSTROM^-1]                              0.4000
 EWALD| Real Space Cutoff [          ANGSTROM]                            8.4348
 EWALD| G-space max. Miller index                         80        80        80
 EWALD| Spline interpolation order                                             6

 FORCEFIELD| WARNING: A non Critical ForceField parameter is missing! CP2K GOES!
 FORCEFIELD| Non critical parameters are:Urey-Bradley,Torsions,Impropers, Opbends and 1-4
 FORCEFIELD| All missing parameters will not contribute to the potential energy!
 FORCEFIELD| Activate the print key FF_INFO to have a list of missing parameters

 CHARGE_INFO| Total Charge of the Classical System:                    -0.825808

 SPLINE_INFO| Generating 101926 splines for NONBONDED14 interactions 
              Due to 451 different atomic kinds
  ...10192  ...20384  ...30576  ...40768  ...50960  ...61152  ...71344  ...81536  ...91728  ...101920
 SPLINE_INFO| Number of unique splines computed:            301
 SPLINE_INFO| Done

 SPLINE_INFO| Generating 101926 splines for NONBONDED interactions 
              Due to 451 different atomic kinds
  ...10192  ...20384  ...30576  ...40768  ...50960  ...61152  ...71344  ...81536  ...91728  ...101920
 SPLINE_INFO| Number of unique splines computed:            301
 SPLINE_INFO| Done

 *******************************************************************************
 *******************************************************************************
 **                                                                           **
 **     #####                         ##              ##                      **
 **    ##   ##            ##          ##              ##                      **
 **   ##     ##                       ##            ######                    **
 **   ##     ##  ##   ##  ##   #####  ##  ##   ####   ##    #####    #####    **
 **   ##     ##  ##   ##  ##  ##      ## ##   ##      ##   ##   ##  ##   ##   **
 **   ##  ## ##  ##   ##  ##  ##      ####     ###    ##   ######   ######    **
 **    ##  ###   ##   ##  ##  ##      ## ##      ##   ##   ##       ##        **
 **     #######   #####   ##   #####  ##  ##  ####    ##    #####   ##        **
 **           ##                                                    ##        **
 **                                                                           **
 **                                                ... make the atoms dance   **
 **                                                                           **
 **            Copyright (C) by CP2K developers group (2000 - 2020)           **
 **                      J. Chem. Phys. 152, 194103 (2020)                    **
 **                                                                           **
 *******************************************************************************


 TOTAL NUMBERS AND MAXIMUM NUMBERS

  Total number of            - Atomic kinds:                                   5
                             - Atoms:                                         68
                             - Shell sets:                                   340
                             - Shells:                                       445
                             - Primitive Cartesian functions:                476
                             - Cartesian basis functions:                   1137
                             - Spherical basis functions:                   1067

  Maximum angular momentum of- Orbital basis functions:                        2
                             - Local part of the GTH pseudopotential:          2
                             - Non-local part of the GTH pseudopotential:      0


 SCF PARAMETERS         Density guess:                                   RESTART
                        --------------------------------------------------------
                        max_scf:                                              30
                        max_scf_history:                                       0
                        max_diis:                                              4
                        --------------------------------------------------------
                        eps_scf:                                        1.00E-06
                        eps_scf_history:                                0.00E+00
                        eps_diis:                                       1.00E-01
                        eps_eigval:                                     1.00E-05
                        --------------------------------------------------------
                        level_shift [a.u.]:                                 0.00
                        --------------------------------------------------------
                        Outer loop SCF in use 
                        No variables optimised in outer loop
                        eps_scf                                         1.00E-06
                        max_scf                                               20
                        No outer loop optimization
                        step_size                                       5.00E-01

 *******************************************************************************
 *******************************************************************************
 **                                                                           **
 **             #######  ##     ## ##     ## ##     ##                        **
 **            ##     ## ###   ### ###   ### ###   ###                        **
 **            ##     ## #### #### #### #### #### ####                        **
 **            ##     ## ## ### ## ## ### ## ## ### ##                        **
 **            ##  ## ## ##     ## ##     ## ##     ##                        **
 **            ##    ##  ##     ## ##     ## ##     ##  T.Laino and F.Mohamed **
 **             ##### ## ##     ## ##     ## ##     ##  2005 - 2015           **
 **                                                                           **
 **                                                     Calculation Started.. **
 *******************************************************************************
 *******************************************************************************

 MD_PAR| Molecular dynamics protocol (MD input parameters)
 MD_PAR| Ensemble type                                                       NVE
 MD_PAR| Number of time steps                                                  6
 MD_PAR| Time step [fs]                                                 1.000000
 MD_PAR| Temperature [K]                                              300.000000
 MD_PAR| Temperature tolerance [K]                                      0.000000
 MD_PAR| Print MD information every                                    1 step(s)
 MD_PAR| File type   Print frequency [steps]                          File names
 MD_PAR| Coordinates          1                           CBD_PHY-PBE0-pos-1.xyz
 MD_PAR| Velocities           1                           CBD_PHY-PBE0-vel-1.xyz
 MD_PAR| Energies             1                              CBD_PHY-PBE0-1.ener
 MD_PAR| Dump                20                           CBD_PHY-PBE0-1.restart

 ROT| Rotational analysis information
 ROT| Principal axes and moments of inertia [a.u.]
 ROT|                           1                   2                   3
 ROT| Eigenvalues      1.56283164001E+13   1.56407408488E+13   1.56663418804E+13
 ROT|      x              0.901637047331     -0.018153263569      0.432112362589
 ROT|      y              0.323714777231      0.690893927917     -0.646431994389
 ROT|      z             -0.286808957117      0.722728191915      0.628812040859
 ROT| Number of rotovibrational vectors                                        6

 DOF| Calculation of degrees of freedom
 DOF| Number of atoms                                                     167923
 DOF| Number of intramolecular constraints                                     0
 DOF| Number of intermolecular constraints                                     0
 DOF| Invariants (translations + rotations)                                    3
 DOF| Degrees of freedom                                                  503766

 DOF| Restraints information
 DOF| Number of intramolecular restraints                                      0
 DOF| Number of intermolecular restraints                                      0

 MD_VEL| Velocities initialization
 MD_VEL| Initial temperature [K]                                      300.000000
 MD_VEL| COM velocity            -0.0000000000     0.0000000000     0.0000000000

  Translating the system in order to center the QM fragment in the QM box.

 Number of electrons:                                                        180
 Number of occupied orbitals:                                                 90
 Number of molecular orbitals:                                                90

 Number of orbital functions:                                               1067
 Number of independent orbital functions:                                   1067

 Extrapolation method: initial_guess


 SCF WAVEFUNCTION OPTIMIZATION

  ----------------------------------- OT ---------------------------------------
  Minimizer      : DIIS                : direct inversion
                                         in the iterative subspace
                                         using   7 DIIS vectors
                                         safer DIIS on
  Preconditioner : FULL_ALL            : diagonalization, state selective
  Precond_solver : DEFAULT
  stepsize       :    0.15000000                  energy_gap     :    0.08000000
  eps_taylor     :   0.10000E-15                  max_taylor     :             4
  ----------------------------------- OT ---------------------------------------

  Step     Update method      Time    Convergence         Total energy    Change
  ------------------------------------------------------------------------------
  Decoupling Energy:                                               0.0370647021
  Recoupling Energy:                                              -0.0063741479
     1 OT DIIS     0.15E+00    9.2     0.00129057      -255.9257316527 -2.56E+02
  Decoupling Energy:                                               0.0370576004
  Recoupling Energy:                                              -0.0063740314
     2 OT DIIS     0.15E+00    1.6     0.00057761      -255.9419521970 -1.62E-02
  Decoupling Energy:                                               0.0369596417
  Recoupling Energy:                                              -0.0063730135
     3 OT DIIS     0.15E+00    1.7     0.00038348      -255.9451217313 -3.17E-03
  Decoupling Energy:                                               0.0369795469
  Recoupling Energy:                                              -0.0063732416
     4 OT DIIS     0.15E+00    1.6     0.00009866      -255.9458275763 -7.06E-04
  Decoupling Energy:                                               0.0369716948
  Recoupling Energy:                                              -0.0063731487
     5 OT DIIS     0.15E+00    1.6     0.00003992      -255.9458779680 -5.04E-05
  Decoupling Energy:                                               0.0369737640
  Recoupling Energy:                                              -0.0063731649
     6 OT DIIS     0.15E+00    1.7     0.00001793      -255.9458894164 -1.14E-05
  Decoupling Energy:                                               0.0369741807
  Recoupling Energy:                                              -0.0063731680
     7 OT DIIS     0.15E+00    1.7     0.00000621      -255.9458922933 -2.88E-06
  Decoupling Energy:                                               0.0369727126
  Recoupling Energy:                                              -0.0063731518
     8 OT DIIS     0.15E+00    1.6     0.00000242      -255.9458926323 -3.39E-07
  Decoupling Energy:                                               0.0369731060
  Recoupling Energy:                                              -0.0063731556
     9 OT DIIS     0.15E+00    1.7     0.00000111      -255.9458926816 -4.94E-08
  Decoupling Energy:                                               0.0369728228
  Recoupling Energy:                                              -0.0063731526
    10 OT DIIS     0.15E+00    1.7     0.00000048      -255.9458926918 -1.02E-08

  *** SCF run converged in    10 steps ***


  Electronic density on regular grids:       -179.9999999999        0.0000000001
  Core density on regular grids:              180.9999999999       -0.0000000001
  Total charge density on r-space grids:        1.0000000000
  Total charge density g-space grids:           1.0000000000

  Overlap energy of the core charge distribution:               0.00001951532734
  Self energy of the core charge distribution:               -615.71576003586028
  Core Hamiltonian energy:                                    191.01363234739478
  Hartree energy:                                             248.20663852142459
  Exchange-correlation energy:                                -61.38430758347374
  Hartree-Fock Exchange energy:                               -18.10821017492056
  QM/MM Electrostatic energy:                                   0.04209471826718

  Total energy:                                              -255.94589269184067

  outer SCF iter =    1 RMS gradient =   0.48E-06 energy =       -255.9458926918
  outer SCF loop converged in   1 iterations or   10 steps

  Decoupling Energy:                                               0.0369728027
  Recoupling Energy:                                              -0.0063731523

 ENERGY| Total FORCE_EVAL ( QMMM ) energy [a.u.]:          -1088.110859623914621

 MD_INI| MD initialization
 MD_INI| Potential energy [hartree]                          -0.108811085962E+04
 MD_INI| Total kinetic energy [hartree]                       0.239300084734E+03
 MD_INI| QM kinetic energy [hartree]                          0.106639360339E+00
 MD_INI| Total temperature [K]                                        300.000000
 MD_INI| QM temperature [K]                                           330.137318
 MD_INI| Cell volume [bohr^3]                                 1.137316355424E+07
 MD_INI| Cell volume [ang^3]                                  1.685328937712E+06
 MD_INI| Cell lengths [bohr]      2.24884969E+02  2.24884969E+02  2.24884969E+02
 MD_INI| Cell lengths [ang]       1.19004000E+02  1.19004000E+02  1.19004000E+02
 MD_INI| Cell angles [deg]        9.00000000E+01  9.00000000E+01  9.00000000E+01

  Translating the system in order to center the QM fragment in the QM box.

 Number of electrons:                                                        180
 Number of occupied orbitals:                                                 90
 Number of molecular orbitals:                                                90

 Number of orbital functions:                                               1067
 Number of independent orbital functions:                                   1067

 Extrapolation method: ASPC


 SCF WAVEFUNCTION OPTIMIZATION

  ----------------------------------- OT ---------------------------------------
  Minimizer      : DIIS                : direct inversion
                                         in the iterative subspace
                                         using   7 DIIS vectors
                                         safer DIIS on
  Preconditioner : FULL_ALL            : diagonalization, state selective
  Precond_solver : DEFAULT
  stepsize       :    0.15000000                  energy_gap     :    0.08000000
  eps_taylor     :   0.10000E-15                  max_taylor     :             4
  ----------------------------------- OT ---------------------------------------

  Step     Update method      Time    Convergence         Total energy    Change
  ------------------------------------------------------------------------------
  Decoupling Energy:                                               0.0370014666
  Recoupling Energy:                                              -0.0063734172
     1 OT DIIS     0.15E+00    5.7     0.00075899      -255.7182133388 -2.56E+02
  Decoupling Energy:                                               0.0370082379
  Recoupling Energy:                                              -0.0063735355
     2 OT DIIS     0.15E+00    1.6     0.00032685      -255.7237311706 -5.52E-03
  Decoupling Energy:                                               0.0370087414
  Recoupling Energy:                                              -0.0063735590
     3 OT DIIS     0.15E+00    1.6     0.00019068      -255.7247684936 -1.04E-03
  Decoupling Energy:                                               0.0370199883
  Recoupling Energy:                                              -0.0063736817
     4 OT DIIS     0.15E+00    1.6     0.00006054      -255.7249609265 -1.92E-04
  Decoupling Energy:                                               0.0370216763
  Recoupling Energy:                                              -0.0063737045
     5 OT DIIS     0.15E+00    1.6     0.00001954      -255.7249774911 -1.66E-05
  Decoupling Energy:                                               0.0370210005
  Recoupling Energy:                                              -0.0063736984
     6 OT DIIS     0.15E+00    1.6     0.00000817      -255.7249797495 -2.26E-06
  Decoupling Energy:                                               0.0370221930
  Recoupling Energy:                                              -0.0063737124
     7 OT DIIS     0.15E+00    1.6     0.00000308      -255.7249802116 -4.62E-07
  Decoupling Energy:                                               0.0370222383
  Recoupling Energy:                                              -0.0063737132
     8 OT DIIS     0.15E+00    1.6     0.00000136      -255.7249802888 -7.72E-08
  Decoupling Energy:                                               0.0370224659
  Recoupling Energy:                                              -0.0063737159
     9 OT DIIS     0.15E+00    1.6     0.00000058      -255.7249803045 -1.57E-08

  *** SCF run converged in     9 steps ***


  Electronic density on regular grids:       -180.0000000000        0.0000000000
  Core density on regular grids:              180.9999999999       -0.0000000001
  Total charge density on r-space grids:        0.9999999999
  Total charge density g-space grids:           0.9999999999

  Overlap energy of the core charge distribution:               0.00002422740857
  Self energy of the core charge distribution:               -615.71576003586028
  Core Hamiltonian energy:                                    191.21094915026822
  Hartree energy:                                             248.07774935412920
  Exchange-correlation energy:                                -61.42683516121073
  Hartree-Fock Exchange energy:                               -18.12283152467860
  QM/MM Electrostatic energy:                                   0.25172368541962

  Total energy:                                              -255.72498030452405

  outer SCF iter =    1 RMS gradient =   0.58E-06 energy =       -255.7249803045
  outer SCF loop converged in   1 iterations or    9 steps

  Decoupling Energy:                                               0.0370224945
  Recoupling Energy:                                              -0.0063737164

 ENERGY| Total FORCE_EVAL ( QMMM ) energy [a.u.]:          -1059.962356479654773

 MD| ***************************************************************************
 MD| Step number                                                               1
 MD| Time [fs]                                                          1.000000
 MD| Conserved quantity [hartree]                            -0.841461427289E+03
 MD| ---------------------------------------------------------------------------
 MD|                                          Instantaneous             Averages
 MD| CPU time per MD step [s]                    156.721598           156.721598
 MD| Energy drift per atom [K]           0.138202488700E+02   0.000000000000E+00
 MD| Potential energy [hartree]         -0.105996235648E+04  -0.105996235648E+04
 MD| Total kinetic energy [hartree]      0.218500929191E+03   0.218500929191E+03
 MD| QM kinetic energy [hartree]         0.121347064938E+00   0.121347064938E+00
 MD| Total temperature [K]                       273.925013           273.925013
 MD| QM temperature [K]                          375.669870           375.669870
 MD| ***************************************************************************

  Translating the system in order to center the QM fragment in the QM box.

 Number of electrons:                                                        180
 Number of occupied orbitals:                                                 90
 Number of molecular orbitals:                                                90

 Number of orbital functions:                                               1067
 Number of independent orbital functions:                                   1067

 Extrapolation method: ASPC


 SCF WAVEFUNCTION OPTIMIZATION

  ----------------------------------- OT ---------------------------------------
  Minimizer      : DIIS                : direct inversion
                                         in the iterative subspace
                                         using   7 DIIS vectors
                                         safer DIIS on
  Preconditioner : FULL_ALL            : diagonalization, state selective
  Precond_solver : DEFAULT
  stepsize       :    0.15000000                  energy_gap     :    0.08000000
  eps_taylor     :   0.10000E-15                  max_taylor     :             4
  ----------------------------------- OT ---------------------------------------

  Step     Update method      Time    Convergence         Total energy    Change
  ------------------------------------------------------------------------------
  Decoupling Energy:                                               0.0370781952
  Recoupling Energy:                                              -0.0063743358
     1 OT DIIS     0.15E+00    5.7     0.00029264      -255.3622516098 -2.55E+02
  Decoupling Energy:                                               0.0370714482
  Recoupling Energy:                                              -0.0063742686
     2 OT DIIS     0.15E+00    1.6     0.00012382      -255.3630879130 -8.36E-04
  Decoupling Energy:                                               0.0370747114
  Recoupling Energy:                                              -0.0063743002
     3 OT DIIS     0.15E+00    1.6     0.00005669      -255.3632553776 -1.67E-04
  Decoupling Energy:                                               0.0370720725
  Recoupling Energy:                                              -0.0063742776
     4 OT DIIS     0.15E+00    1.6     0.00001749      -255.3632741393 -1.88E-05
  Decoupling Energy:                                               0.0370725473
  Recoupling Energy:                                              -0.0063742816
     5 OT DIIS     0.15E+00    1.6     0.00000679      -255.3632756586 -1.52E-06
  Decoupling Energy:                                               0.0370729616
  Recoupling Energy:                                              -0.0063742866
     6 OT DIIS     0.15E+00    1.6     0.00000313      -255.3632759146 -2.56E-07
  Decoupling Energy:                                               0.0370729467
  Recoupling Energy:                                              -0.0063742865
     7 OT DIIS     0.15E+00    1.6     0.00000106      -255.3632759753 -6.08E-08
  Decoupling Energy:                                               0.0370730043
  Recoupling Energy:                                              -0.0063742872
     8 OT DIIS     0.15E+00    1.6     0.00000048      -255.3632759855 -1.02E-08

  *** SCF run converged in     8 steps ***


  Electronic density on regular grids:       -180.0000000000       -0.0000000000
  Core density on regular grids:              180.9999999999       -0.0000000001
  Total charge density on r-space grids:        0.9999999999
  Total charge density g-space grids:           0.9999999999

  Overlap energy of the core charge distribution:               0.00005088928427
  Self energy of the core charge distribution:               -615.71576003586028
  Core Hamiltonian energy:                                    191.44417893360293
  Hartree energy:                                             247.94137173656770
  Exchange-correlation energy:                                -61.47332305383504
  Hartree-Fock Exchange energy:                               -18.13880590672395
  QM/MM Electrostatic energy:                                   0.57901145145447

  Total energy:                                              -255.36327598550992

  outer SCF iter =    1 RMS gradient =   0.48E-06 energy =       -255.3632759855
  outer SCF loop converged in   1 iterations or    8 steps

  Decoupling Energy:                                               0.0370730212
  Recoupling Energy:                                              -0.0063742875

 ENERGY| Total FORCE_EVAL ( QMMM ) energy [a.u.]:          -1061.235329315125455

 MD| ***************************************************************************
 MD| Step number                                                               2
 MD| Time [fs]                                                          2.000000
 MD| Conserved quantity [hartree]                            -0.842817775314E+03
 MD| ---------------------------------------------------------------------------
 MD|                                          Instantaneous             Averages
 MD| CPU time per MD step [s]                     65.112254           110.916926
 MD| Energy drift per atom [K]           0.112696731900E+02   0.563483659498E+01
 MD| Potential energy [hartree]         -0.106123532932E+04  -0.106059884290E+04
 MD| Total kinetic energy [hartree]      0.218417554001E+03   0.218459241596E+03
 MD| QM kinetic energy [hartree]         0.111577470699E+00   0.116462267818E+00
 MD| Total temperature [K]                       273.820489           273.872751
 MD| QM temperature [K]                          345.424868           360.547369
 MD| ***************************************************************************

  Translating the system in order to center the QM fragment in the QM box.

 Number of electrons:                                                        180
 Number of occupied orbitals:                                                 90
 Number of molecular orbitals:                                                90

 Number of orbital functions:                                               1067
 Number of independent orbital functions:                                   1067

 Extrapolation method: ASPC


 SCF WAVEFUNCTION OPTIMIZATION

  ----------------------------------- OT ---------------------------------------
  Minimizer      : DIIS                : direct inversion
                                         in the iterative subspace
                                         using   7 DIIS vectors
                                         safer DIIS on
  Preconditioner : FULL_ALL            : diagonalization, state selective
  Precond_solver : DEFAULT
  stepsize       :    0.15000000                  energy_gap     :    0.08000000
  eps_taylor     :   0.10000E-15                  max_taylor     :             4
  ----------------------------------- OT ---------------------------------------

  Step     Update method      Time    Convergence         Total energy    Change
  ------------------------------------------------------------------------------
  Decoupling Energy:                                               0.0371231834
  Recoupling Energy:                                              -0.0063748345
     1 OT DIIS     0.15E+00    5.7     0.00057308      -254.8840284532 -2.55E+02
  Decoupling Energy:                                               0.0371263453
  Recoupling Energy:                                              -0.0063748784
     2 OT DIIS     0.15E+00    1.6     0.00022563      -254.8871538060 -3.13E-03
  Decoupling Energy:                                               0.0371271757
  Recoupling Energy:                                              -0.0063748855
     3 OT DIIS     0.15E+00    1.6     0.00008219      -254.8877090563 -5.55E-04
  Decoupling Energy:                                               0.0371222820
  Recoupling Energy:                                              -0.0063748368
     4 OT DIIS     0.15E+00    1.6     0.00002732      -254.8877592674 -5.02E-05
  Decoupling Energy:                                               0.0371233499
  Recoupling Energy:                                              -0.0063748482
     5 OT DIIS     0.15E+00    1.6     0.00001021      -254.8877630460 -3.78E-06
  Decoupling Energy:                                               0.0371231582
  Recoupling Energy:                                              -0.0063748450
     6 OT DIIS     0.15E+00    1.6     0.00000431      -254.8877636230 -5.77E-07
  Decoupling Energy:                                               0.0371230883
  Recoupling Energy:                                              -0.0063748447
     7 OT DIIS     0.15E+00    1.6     0.00000136      -254.8877637101 -8.71E-08
  Decoupling Energy:                                               0.0371230916
  Recoupling Energy:                                              -0.0063748447
     8 OT DIIS     0.15E+00    1.6     0.00000060      -254.8877637208 -1.07E-08

  *** SCF run converged in     8 steps ***


  Electronic density on regular grids:       -180.0000000003       -0.0000000003
  Core density on regular grids:              180.9999999999       -0.0000000001
  Total charge density on r-space grids:        0.9999999996
  Total charge density g-space grids:           0.9999999996

  Overlap energy of the core charge distribution:               0.00005124406371
  Self energy of the core charge distribution:               -615.71576003586028
  Core Hamiltonian energy:                                    191.49122969762738
  Hartree energy:                                             247.90730135884178
  Exchange-correlation energy:                                -61.48094148307605
  Hartree-Fock Exchange energy:                               -18.14140035937997
  QM/MM Electrostatic energy:                                   1.05175585698485

  Total energy:                                              -254.88776372079860

  outer SCF iter =    1 RMS gradient =   0.60E-06 energy =       -254.8877637208
  outer SCF loop converged in   1 iterations or    8 steps

  Decoupling Energy:                                               0.0371230903
  Recoupling Energy:                                              -0.0063748447

 ENERGY| Total FORCE_EVAL ( QMMM ) energy [a.u.]:          -1082.045341715994027

 MD| ***************************************************************************
 MD| Step number                                                               3
 MD| Time [fs]                                                          3.000000
 MD| Conserved quantity [hartree]                            -0.846392352224E+03
 MD| ---------------------------------------------------------------------------
 MD|                                          Instantaneous             Averages
 MD| CPU time per MD step [s]                     65.510963            95.781605
 MD| Energy drift per atom [K]           0.454777824246E+01   0.527248381081E+01
 MD| Potential energy [hartree]         -0.108204534172E+04  -0.106774767584E+04
 MD| Total kinetic energy [hartree]      0.235652989492E+03   0.224190490895E+03
 MD| QM kinetic energy [hartree]         0.117355269815E+00   0.116759935151E+00
 MD| Total temperature [K]                       295.427797           281.057766
 MD| QM temperature [K]                          363.311951           361.468896
 MD| ***************************************************************************

  Translating the system in order to center the QM fragment in the QM box.

 Number of electrons:                                                        180
 Number of occupied orbitals:                                                 90
 Number of molecular orbitals:                                                90

 Number of orbital functions:                                               1067
 Number of independent orbital functions:                                   1067

 Extrapolation method: ASPC


 SCF WAVEFUNCTION OPTIMIZATION

  ----------------------------------- OT ---------------------------------------
  Minimizer      : DIIS                : direct inversion
                                         in the iterative subspace
                                         using   7 DIIS vectors
                                         safer DIIS on
  Preconditioner : FULL_ALL            : diagonalization, state selective
  Precond_solver : DEFAULT
  stepsize       :    0.15000000                  energy_gap     :    0.08000000
  eps_taylor     :   0.10000E-15                  max_taylor     :             4
  ----------------------------------- OT ---------------------------------------

  Step     Update method      Time    Convergence         Total energy    Change
  ------------------------------------------------------------------------------
  Decoupling Energy:                                               0.0371653339
  Recoupling Energy:                                              -0.0063753264
     1 OT DIIS     0.15E+00    5.7     0.00026726      -254.3372987660 -2.54E+02
  Decoupling Energy:                                               0.0371743603
  Recoupling Energy:                                              -0.0063754111
     2 OT DIIS     0.15E+00    1.6     0.00010727      -254.3379926678 -6.94E-04
  Decoupling Energy:                                               0.0371689220
  Recoupling Energy:                                              -0.0063753547
     3 OT DIIS     0.15E+00    1.6     0.00004063      -254.3381214106 -1.29E-04
  Decoupling Energy:                                               0.0371715289
  Recoupling Energy:                                              -0.0063753819
     4 OT DIIS     0.15E+00    1.6     0.00001302      -254.3381314774 -1.01E-05
  Decoupling Energy:                                               0.0371702527
  Recoupling Energy:                                              -0.0063753692
     5 OT DIIS     0.15E+00    1.6     0.00000559      -254.3381323405 -8.63E-07
  Decoupling Energy:                                               0.0371705035
  Recoupling Energy:                                              -0.0063753712
     6 OT DIIS     0.15E+00    1.6     0.00000191      -254.3381324868 -1.46E-07
  Decoupling Energy:                                               0.0371705410
  Recoupling Energy:                                              -0.0063753718
     7 OT DIIS     0.15E+00    1.6     0.00000064      -254.3381325060 -1.92E-08

  *** SCF run converged in     7 steps ***


  Electronic density on regular grids:       -179.9999999999        0.0000000001
  Core density on regular grids:              180.9999999999       -0.0000000001
  Total charge density on r-space grids:        1.0000000000
  Total charge density g-space grids:           1.0000000000

  Overlap energy of the core charge distribution:               0.00002358431289
  Self energy of the core charge distribution:               -615.71576003586028
  Core Hamiltonian energy:                                    191.34731758870296
  Hartree energy:                                             247.97609901895336
  Exchange-correlation energy:                                -61.44936621039430
  Hartree-Fock Exchange energy:                               -18.13041716114972
  QM/MM Electrostatic energy:                                   1.63397070943892

  Total energy:                                              -254.33813250599619

  outer SCF iter =    1 RMS gradient =   0.64E-06 energy =       -254.3381325060
  outer SCF loop converged in   1 iterations or    7 steps

  Decoupling Energy:                                               0.0371704598
  Recoupling Energy:                                              -0.0063753709

 ENERGY| Total FORCE_EVAL ( QMMM ) energy [a.u.]:          -1079.714053658181001

 MD| ***************************************************************************
 MD| Step number                                                               4
 MD| Time [fs]                                                          4.000000
 MD| Conserved quantity [hartree]                            -0.842113598477E+03
 MD| ---------------------------------------------------------------------------
 MD|                                          Instantaneous             Averages
 MD| CPU time per MD step [s]                     63.468617            87.703358
 MD| Energy drift per atom [K]           0.125938586355E+02   0.710282751698E+01
 MD| Potential energy [hartree]         -0.107971405366E+04  -0.107073927029E+04
 MD| Total kinetic energy [hartree]      0.237600455181E+03   0.227542981966E+03
 MD| QM kinetic energy [hartree]         0.148327045186E+00   0.124651712660E+00
 MD| Total temperature [K]                       297.869249           285.260637
 MD| QM temperature [K]                          459.195299           385.900497
 MD| ***************************************************************************

  Translating the system in order to center the QM fragment in the QM box.

 Number of electrons:                                                        180
 Number of occupied orbitals:                                                 90
 Number of molecular orbitals:                                                90

 Number of orbital functions:                                               1067
 Number of independent orbital functions:                                   1067

 Extrapolation method: ASPC


 SCF WAVEFUNCTION OPTIMIZATION

  ----------------------------------- OT ---------------------------------------
  Minimizer      : DIIS                : direct inversion
                                         in the iterative subspace
                                         using   7 DIIS vectors
                                         safer DIIS on
  Preconditioner : FULL_ALL            : diagonalization, state selective
  Precond_solver : DEFAULT
  stepsize       :    0.15000000                  energy_gap     :    0.08000000
  eps_taylor     :   0.10000E-15                  max_taylor     :             4
  ----------------------------------- OT ---------------------------------------

  Step     Update method      Time    Convergence         Total energy    Change
  ------------------------------------------------------------------------------
  Decoupling Energy:                                               0.0372104241
  Recoupling Energy:                                              -0.0063758480
     1 OT DIIS     0.15E+00    5.7     0.00032115      -253.7449343922 -2.54E+02
  Decoupling Energy:                                               0.0372070488
  Recoupling Energy:                                              -0.0063758000
     2 OT DIIS     0.15E+00    1.6     0.00013157      -253.7458505786 -9.16E-04
  Decoupling Energy:                                               0.0372095002
  Recoupling Energy:                                              -0.0063758231
     3 OT DIIS     0.15E+00    1.6     0.00006250      -253.7460089635 -1.58E-04
  Decoupling Energy:                                               0.0372087557
  Recoupling Energy:                                              -0.0063758147
     4 OT DIIS     0.15E+00    1.6     0.00002455      -253.7460400713 -3.11E-05
  Decoupling Energy:                                               0.0372096201
  Recoupling Energy:                                              -0.0063758219
     5 OT DIIS     0.15E+00    1.6     0.00000528      -253.7460426407 -2.57E-06
  Decoupling Energy:                                               0.0372093141
  Recoupling Energy:                                              -0.0063758194
     6 OT DIIS     0.15E+00    1.6     0.00000254      -253.7460427853 -1.45E-07
  Decoupling Energy:                                               0.0372093048
  Recoupling Energy:                                              -0.0063758191
     7 OT DIIS     0.15E+00    1.6     0.00000088      -253.7460428179 -3.27E-08

  *** SCF run converged in     7 steps ***


  Electronic density on regular grids:       -180.0000000000       -0.0000000000
  Core density on regular grids:              180.9999999999       -0.0000000001
  Total charge density on r-space grids:        0.9999999999
  Total charge density g-space grids:           0.9999999999

  Overlap energy of the core charge distribution:               0.00001841776736
  Self energy of the core charge distribution:               -615.71576003586028
  Core Hamiltonian energy:                                    191.22472361180760
  Hartree energy:                                             248.04796415350197
  Exchange-correlation energy:                                -61.41798608651121
  Hartree-Fock Exchange energy:                               -18.11952138505584
  QM/MM Electrostatic energy:                                   2.23451850643223

  Total energy:                                              -253.74604281791818

  outer SCF iter =    1 RMS gradient =   0.88E-06 energy =       -253.7460428179
  outer SCF loop converged in   1 iterations or    7 steps

  Decoupling Energy:                                               0.0372093362
  Recoupling Energy:                                              -0.0063758194

 ENERGY| Total FORCE_EVAL ( QMMM ) energy [a.u.]:          -1094.307011587362467

 MD| ***************************************************************************
 MD| Step number                                                               5
 MD| Time [fs]                                                          5.000000
 MD| Conserved quantity [hartree]                            -0.848389417623E+03
 MD| ---------------------------------------------------------------------------
 MD|                                          Instantaneous             Averages
 MD| CPU time per MD step [s]                     63.958787            82.954444
 MD| Energy drift per atom [K]           0.792350914709E+00   0.584073219652E+01
 MD| Potential energy [hartree]         -0.109430701159E+04  -0.107545281855E+04
 MD| Total kinetic energy [hartree]      0.245917593964E+03   0.231217904366E+03
 MD| QM kinetic energy [hartree]         0.157563717481E+00   0.131234113624E+00
 MD| Total temperature [K]                       308.296081           289.867726
 MD| QM temperature [K]                          487.790465           406.278490
 MD| ***************************************************************************

  Translating the system in order to center the QM fragment in the QM box.

 Number of electrons:                                                        180
 Number of occupied orbitals:                                                 90
 Number of molecular orbitals:                                                90

 Number of orbital functions:                                               1067
 Number of independent orbital functions:                                   1067

 Extrapolation method: ASPC


 SCF WAVEFUNCTION OPTIMIZATION

  ----------------------------------- OT ---------------------------------------
  Minimizer      : DIIS                : direct inversion
                                         in the iterative subspace
                                         using   7 DIIS vectors
                                         safer DIIS on
  Preconditioner : FULL_ALL            : diagonalization, state selective
  Precond_solver : DEFAULT
  stepsize       :    0.15000000                  energy_gap     :    0.08000000
  eps_taylor     :   0.10000E-15                  max_taylor     :             4
  ----------------------------------- OT ---------------------------------------

  Step     Update method      Time    Convergence         Total energy    Change
  ------------------------------------------------------------------------------
  Decoupling Energy:                                               0.0372437360
  Recoupling Energy:                                              -0.0063762134
     1 OT DIIS     0.15E+00    5.7     0.00049062      -253.1925051105 -2.53E+02
  Decoupling Energy:                                               0.0372421644
  Recoupling Energy:                                              -0.0063762293
     2 OT DIIS     0.15E+00    1.6     0.00019263      -253.1946642151 -2.16E-03
  Decoupling Energy:                                               0.0372395103
  Recoupling Energy:                                              -0.0063761930
     3 OT DIIS     0.15E+00    1.6     0.00008087      -253.1950236402 -3.59E-04
  Decoupling Energy:                                               0.0372399305
  Recoupling Energy:                                              -0.0063761995
     4 OT DIIS     0.15E+00    1.6     0.00002247      -253.1950826862 -5.90E-05
  Decoupling Energy:                                               0.0372387751
  Recoupling Energy:                                              -0.0063761868
     5 OT DIIS     0.15E+00    1.6     0.00000834      -253.1950852602 -2.57E-06
  Decoupling Energy:                                               0.0372394829
  Recoupling Energy:                                              -0.0063761928
     6 OT DIIS     0.15E+00    1.6     0.00000287      -253.1950856167 -3.56E-07
  Decoupling Energy:                                               0.0372392292
  Recoupling Energy:                                              -0.0063761905
     7 OT DIIS     0.15E+00    1.6     0.00000087      -253.1950856571 -4.04E-08

  *** SCF run converged in     7 steps ***


  Electronic density on regular grids:       -180.0000000000       -0.0000000000
  Core density on regular grids:              180.9999999999       -0.0000000001
  Total charge density on r-space grids:        0.9999999999
  Total charge density g-space grids:           0.9999999999

  Overlap energy of the core charge distribution:               0.00001843283992
  Self energy of the core charge distribution:               -615.71576003586028
  Core Hamiltonian energy:                                    191.21895331209402
  Hartree energy:                                             248.05852810589079
  Exchange-correlation energy:                                -61.40902717016304
  Hartree-Fock Exchange energy:                               -18.11645290822777
  QM/MM Electrostatic energy:                                   2.76865460632735

  Total energy:                                              -253.19508565709896

  outer SCF iter =    1 RMS gradient =   0.87E-06 energy =       -253.1950856571
  outer SCF loop converged in   1 iterations or    7 steps

  Decoupling Energy:                                               0.0372392191
  Recoupling Energy:                                              -0.0063761903

 ENERGY| Total FORCE_EVAL ( QMMM ) energy [a.u.]:          -1057.339964946758755

 MD| ***************************************************************************
 MD| Step number                                                               6
 MD| Time [fs]                                                          6.000000
 MD| Conserved quantity [hartree]                            -0.842900324623E+03
 MD| ---------------------------------------------------------------------------
 MD|                                          Instantaneous             Averages
 MD| CPU time per MD step [s]                     63.406022            79.696373
 MD| Energy drift per atom [K]           0.111144414529E+02   0.671968373926E+01
 MD| Potential energy [hartree]         -0.105733996495E+04  -0.107243400962E+04
 MD| Total kinetic energy [hartree]      0.214439640324E+03   0.228421527026E+03
 MD| QM kinetic energy [hartree]         0.141131894987E+00   0.132883743851E+00
 MD| Total temperature [K]                       268.833553           286.362030
 MD| QM temperature [K]                          436.920338           411.385465
 MD| ***************************************************************************

 -------------------------------------------------------------------------------
 -                                                                             -
 -                                DBCSR STATISTICS                             -
 -                                                                             -
 -------------------------------------------------------------------------------
 COUNTER                                    TOTAL       BLAS       SMM       ACC
 flops     9 x    26 x    26              2810808       0.0%    100.0%      0.0%
 flops    22 x    26 x    26              7287280       0.0%    100.0%      0.0%
 flops     9 x    32 x    32              8515584       0.0%    100.0%      0.0%
 flops    26 x    26 x    26             12268048       0.0%    100.0%      0.0%
 flops    22 x    32 x    32             22077440       0.0%    100.0%      0.0%
 flops    26 x    26 x    32             30198272       0.0%    100.0%      0.0%
 flops    26 x    32 x    26             30198272       0.0%    100.0%      0.0%
 flops    32 x    26 x    26             30198272       0.0%    100.0%      0.0%
 flops    98 x    26 x    26             37098880       0.0%    100.0%      0.0%
 flops    26 x    26 x    31             38726688       0.0%    100.0%      0.0%
 flops    26 x    26 x    40             62462400       0.0%    100.0%      0.0%
 flops    88 x    26 x    26             66626560       0.0%    100.0%      0.0%
 flops    89 x    26 x    26             67383680       0.0%    100.0%      0.0%
 flops    32 x    32 x    26             74334208       0.0%    100.0%      0.0%
 flops    26 x    32 x    32             74334208       0.0%    100.0%      0.0%
 flops    32 x    26 x    32             74334208       0.0%    100.0%      0.0%
 flops    98 x    26 x    31             79619904       0.0%    100.0%      0.0%
 flops    98 x    26 x    32             91320320       0.0%    100.0%      0.0%
 flops    98 x    32 x    26             91320320       0.0%    100.0%      0.0%
 flops    26 x    32 x    31             95327232       0.0%    100.0%      0.0%
 flops    32 x    26 x    31             95327232       0.0%    100.0%      0.0%
 flops    93 x    26 x    26            105618240       0.0%    100.0%      0.0%
 flops    26 x    26 x    53            115867752       0.0%    100.0%      0.0%
 flops    84 x    26 x    26            127196160       0.0%    100.0%      0.0%
 flops    98 x    26 x    40            128419200       0.0%    100.0%      0.0%
 flops    88 x    26 x    31            142990848       0.0%    100.0%      0.0%
 flops    89 x    26 x    31            144615744       0.0%    100.0%      0.0%
 flops    26 x    32 x    40            153753600       0.0%    100.0%      0.0%
 flops    32 x    26 x    40            153753600       0.0%    100.0%      0.0%
 flops    88 x    32 x    26            164003840       0.0%    100.0%      0.0%
 flops    88 x    26 x    32            164003840       0.0%    100.0%      0.0%
 flops     9 x     9 x    26            165405240       0.0%    100.0%      0.0%
 flops    89 x    26 x    32            165867520       0.0%    100.0%      0.0%
 flops    89 x    32 x    26            165867520       0.0%    100.0%      0.0%
 flops    32 x    32 x    32            182976512       0.0%    100.0%      0.0%
 flops    98 x    32 x    31            195987456       0.0%    100.0%      0.0%
 flops    98 x    32 x    32            224788480       0.0%    100.0%      0.0%
 flops    93 x    26 x    31            226672992       0.0%    100.0%      0.0%
 flops    88 x    26 x    40            230630400       0.0%    100.0%      0.0%
 flops    89 x    26 x    40            233251200       0.0%    100.0%      0.0%
 flops    32 x    32 x    31            234651648       0.0%    100.0%      0.0%
 flops    98 x    26 x    53            238217616       0.0%    100.0%      0.0%
 flops    93 x    26 x    32            259983360       0.0%    100.0%      0.0%
 flops    93 x    32 x    26            259983360       0.0%    100.0%      0.0%
 flops    84 x    26 x    31            272982528       0.0%    100.0%      0.0%
 flops    26 x    32 x    53            285212928       0.0%    100.0%      0.0%
 flops    32 x    26 x    53            285212928       0.0%    100.0%      0.0%
 flops    84 x    26 x    32            313098240       0.0%    100.0%      0.0%
 flops    84 x    32 x    26            313098240       0.0%    100.0%      0.0%
 flops    98 x    32 x    40            316108800       0.0%    100.0%      0.0%
 flops    88 x    32 x    31            351977472       0.0%    100.0%      0.0%
 flops    89 x    32 x    31            355977216       0.0%    100.0%      0.0%
 flops    93 x    26 x    40            365601600       0.0%    100.0%      0.0%
 flops    32 x    32 x    40            378470400       0.0%    100.0%      0.0%
 flops    88 x    32 x    32            403701760       0.0%    100.0%      0.0%
 flops     9 x     9 x    32            407151360       0.0%    100.0%      0.0%
 flops    89 x    32 x    32            408289280       0.0%    100.0%      0.0%
 flops    22 x     9 x    26            415855440       0.0%    100.0%      0.0%
 flops     9 x    22 x    26            416576160       0.0%    100.0%      0.0%
 flops    88 x    26 x    53            427819392       0.0%    100.0%      0.0%
 flops    89 x    26 x    53            432680976       0.0%    100.0%      0.0%
 flops    84 x    26 x    40            440294400       0.0%    100.0%      0.0%
 flops    93 x    32 x    31            557964288       0.0%    100.0%      0.0%
 flops    88 x    32 x    40            567705600       0.0%    100.0%      0.0%
 flops    89 x    32 x    40            574156800       0.0%    100.0%      0.0%
 flops    98 x    32 x    53            586381824       0.0%    100.0%      0.0%
 flops    93 x    32 x    32            639959040       0.0%    100.0%      0.0%
 flops    84 x    32 x    31            671956992       0.0%    100.0%      0.0%
 flops    93 x    26 x    53            678190968       0.0%    100.0%      0.0%
 flops    32 x    32 x    53            702062592       0.0%    100.0%      0.0%
 flops    84 x    32 x    32            770703360       0.0%    100.0%      0.0%
 flops     9 x    26 x     9            802701900       0.0%    100.0%      0.0%
 flops    84 x    26 x    53            816746112       0.0%    100.0%      0.0%
 flops    93 x    32 x    40            899942400       0.0%    100.0%      0.0%
 flops    22 x     9 x    32           1023644160       0.0%    100.0%      0.0%
 flops     9 x    22 x    32           1025418240       0.0%    100.0%      0.0%
 flops    88 x    32 x    53           1053093888       0.0%    100.0%      0.0%
 flops    89 x    32 x    53           1065060864       0.0%    100.0%      0.0%
 flops    84 x    32 x    40           1083801600       0.0%    100.0%      0.0%
 flops    22 x    22 x    26           1109908800       0.0%    100.0%      0.0%
 flops    93 x    32 x    53           1669393152       0.0%    100.0%      0.0%
 flops     9 x    32 x     9           1975881600       0.0%    100.0%      0.0%
 flops    84 x    32 x    53           2010451968       0.0%    100.0%      0.0%
 flops     9 x    26 x    22           2081079000       0.0%    100.0%      0.0%
 flops    22 x    26 x     9           2081079000       0.0%    100.0%      0.0%
 flops    22 x    22 x    32           2732083200       0.0%    100.0%      0.0%
 flops    22 x    32 x     9           5122656000       0.0%    100.0%      0.0%
 flops     9 x    32 x    22           5122656000       0.0%    100.0%      0.0%
 flops    22 x    26 x    22           5395390000       0.0%    100.0%      0.0%
 flops    22 x    32 x    22          13280960000       0.0%    100.0%      0.0%
 flops inhomo. stacks                 11847306240     100.0%      0.0%      0.0%
 flops total                        79.814721E+09      14.8%     85.2%      0.0%
 flops max/rank                      2.634197E+09      19.0%     81.0%      0.0%
 matmuls inhomo. stacks                     52920     100.0%      0.0%      0.0%
 matmuls total                            3120111       1.7%     98.3%      0.0%
 number of processed stacks                866895       6.1%     93.9%      0.0%
 average stack size                                     1.0       3.8       0.0
 marketing flops                    85.611389E+09
 -------------------------------------------------------------------------------
 # multiplications                           1245
 max memory usage/rank               1.635262E+09
 # max total images/rank                        2
 # max 3D layers                                1
 # MPI messages exchanged                16135200
 MPI messages size (bytes):
  total size                        79.500280E+09
  min size                           0.000000E+00
  max size                          41.552000E+03
  average size                       4.927133E+03
 MPI breakdown and total messages size (bytes):
             size <=      128            12851715                        0
       128 < size <=     8192              268725               1966989984
      8192 < size <=    32768             2073232              43072252608
     32768 < size <=   131072              941528              34461974008
    131072 < size <=  4194304                   0                        0
   4194304 < size <= 16777216                   0                        0
  16777216 < size                               0                        0
 -------------------------------------------------------------------------------

 *** WARNING in dbcsr_mm.F:294 :: Using a non-square number of MPI ranks ***
 *** might lead to poor performance. Used ranks: 288 Suggested: 289 576  ***

 -------------------------------------------------------------------------------
 -                                                                             -
 -                      DBCSR MESSAGE PASSING PERFORMANCE                      -
 -                                                                             -
 -------------------------------------------------------------------------------
 ROUTINE             CALLS      AVE VOLUME [Bytes]
 MP_Bcast               91                     12.
 MP_Allreduce         6725                      9.
 MP_Alltoall          5262                 114630.
 MP_ISend           118080                   4038.
 MP_IRecv           117618                   3885.
 -------------------------------------------------------------------------------

 -------------------------------------------------------------------------------
 -                                                                             -
 -                                GRID STATISTICS                              -
 -                                                                             -
 -------------------------------------------------------------------------------
 LP    KERNEL             BACKEND                              COUNT     PERCENT
 2     collocate ortho    REF                                1126269      18.39%
 2     integrate ortho    REF                                1106014      18.05%
 1     collocate ortho    REF                                 943978      15.41%
 1     integrate ortho    REF                                 870340      14.21%
 3     integrate ortho    REF                                 570062       9.31%
 3     collocate ortho    REF                                 500530       8.17%
 0     collocate ortho    REF                                 281245       4.59%
 0     integrate ortho    REF                                 249988       4.08%
 0     collocate general  REF                                 137088       2.24%
 1     integrate general  REF                                 137088       2.24%
 4     integrate ortho    REF                                 121240       1.98%
 4     collocate ortho    REF                                  73823       1.21%
 5     integrate ortho    REF                                   8201       0.13%
 -------------------------------------------------------------------------------

 MEMORY| Estimated peak process memory [MiB]                                1638

 -------------------------------------------------------------------------------
 -                                                                             -
 -                         MESSAGE PASSING PERFORMANCE                         -
 -                                                                             -
 -------------------------------------------------------------------------------

 ROUTINE             CALLS      AVE VOLUME [Bytes]
 MP_Group                8
 MP_Bcast             6935               10576282.
 MP_Allreduce         2536                1620764.
 MP_Sync               409
 MP_Alltoall          1344                3951601.
 MP_ISendRecv       118531                  28613.
 MP_Wait            134330
 MP_comm_split          14
 MP_ISend            14063                 123795.
 MP_IRecv            14238                 121884.
 MP_Recv               154                  34144.
 -------------------------------------------------------------------------------


 -------------------------------------------------------------------------------
 -                                                                             -
 -                           R E F E R E N C E S                               -
 -                                                                             -
 -------------------------------------------------------------------------------
 
 CP2K version 8.1, the CP2K developers group (2020).
 CP2K is freely available from https://www.cp2k.org/ .

 Kuehne,Thomas D.; Iannuzzi,Marcella; Del Ben,Mauro;
 Rybkin,Vladimir V.; Seewald,Patrick; Stein,Frederick; Laino,Teodoro;
 Khaliullin,Rustam Z.; Schuett,Ole; Schiffmann,Florian; Golze,Dorothea;
 Wilhelm,Jan; Chulkov,Sergey; Bani-Hashemian,Mohammad Hossein;
 Weber,Valery; Borstnik,Urban; Taillefumier,Mathieu;
 Jakobovits,Alice Shoshana; Lazzaro,Alfio; Pabst,Hans; Mueller,Tiziano;
 Schade,Robert; Guidon,Manuel; Andermatt,Samuel; Holmberg,Nico;
 Schenter,Gregory K.; Hehn,Anna; Bussy,Augustin; Belleflamme,Fabian;
 Tabacchi,Gloria; Gloess,Andreas; Lass,Michael; Bethune,Iain;
 Mundy,Christopher J.; Plessl,Christian; Watkins,Matt;
 VandeVondele,Joost; Krack,Matthias; Hutter,Juerg. 
 The Journal of Chemical Physics, 152 (19), (2020). 
 CP2K: An electronic structure and molecular dynamics software package -
 Quickstep: Efficient and accurate electronic structure calculations.
 https://doi.org/10.1063/5.0007045

 Schuett, Ole; Messmer, Peter; Hutter, Juerg; VandeVondele, Joost. 
 Electronic Structure Calculations on Graphics Processing Units, John
 Wiley & Sons, Ltd, 173-190 (2016). 
 GPU-Accelerated Sparse Matrix-Matrix Multiplication for
 Linear Scaling Density Functional Theory.
 https://doi.org/10.1002/9781118670712.ch8

 Borstnik, U; VandeVondele, J; Weber, V; Hutter, J. 
 PARALLEL COMPUTING, 40 (5-6), 47-58 (2014). 
 Sparse matrix multiplication: The distributed block-compressed sparse
 row library.
 https://doi.org/10.1016/j.parco.2014.03.012

 Hutter, J; Iannuzzi, M; Schiffmann, F; VandeVondele, J. 
 WIREs Comput Mol Sci., 4 (1), 15-25 (2014). 
 CP2K: atomistic simulations of condensed matter systems.
 https://doi.org/10.1002/wcms.1159

 Marek, A; Blum, V; Johanni, R; Havu, V; Lang, B; Auckenthaler, T;
 Heinecke, A; Bungartz, H; Lederer, H. 
 Journal of Physics: Condensed Matter, 26 (21), (2014). 
 The ELPA library: scalable parallel eigenvalue solutions for
 electronic structure
 theory and computational science.
 https://doi.org/10.1088/0953-8984/26/21/213201

 Guidon, M; Hutter, J; VandeVondele, J. 
 JOURNAL OF CHEMICAL THEORY AND COMPUTATION, 5 (11), 3010-3021 (2009). 
 Robust Periodic Hartree-Fock Exchange for Large-Scale Simulations Using
 Gaussian Basis Sets.
 https://doi.org/10.1021/ct900494g

 Guidon, M; Schiffmann, F; Hutter, J; VandeVondele, J. 
 JOURNAL OF CHEMICAL PHYSICS, 128 (21), 214104 (2008). 
 Ab initio molecular dynamics using hybrid density functionals.
 https://doi.org/10.1063/1.2931945

 Kuhne, TD; Krack, M; Mohamed, FR; Parrinello, M. 
 PHYSICAL REVIEW LETTERS, 98 (6), 066401 (2007). 
 Efficient and accurate Car-Parrinello-like approach to
 Born-Oppenheimer molecular dynamics.
 https://doi.org/10.1103/PhysRevLett.98.066401

 Laino, T; Mohamed, F; Laio, A; Parrinello, M. 
 JOURNAL OF CHEMICAL THEORY AND COMPUTATION, 2 (5), 1370-1378 (2006). 
 An efficient linear-scaling electrostatic coupling for treating
 periodic boundary conditions in QM/MM simulations.
 https://doi.org/10.1021/ct6001169

 Laino, T; Mohamed, F; Laio, A; Parrinello, M. 
 JOURNAL OF CHEMICAL THEORY AND COMPUTATION, 1 (6), 1176-1184 (2005). 
 An efficient real space multigrid QM/MM electrostatic coupling.
 https://doi.org/10.1021/ct050123f

 Krack, M. 
 THEORETICAL CHEMISTRY ACCOUNTS, 114 (1-3), 145-152 (2005). 
 Pseudopotentials for H to Kr optimized for gradient-corrected
 exchange-correlation functionals.
 https://doi.org/10.1007/s00214-005-0655-y

 VandeVondele, J; Krack, M; Mohamed, F; Parrinello, M; Chassaing, T;
 Hutter, J. COMPUTER PHYSICS COMMUNICATIONS, 167 (2), 103-128 (2005). 
 QUICKSTEP: Fast and accurate density functional calculations using a
 mixed Gaussian and plane waves approach.
 https://doi.org/10.1016/j.cpc.2004.12.014

 Frigo, M; Johnson, SG. 
 PROCEEDINGS OF THE IEEE, 93 (2), 216-231 (2005). 
 The design and implementation of FFTW3.
 https://doi.org/10.1109/JPROC.2004.840301

 Kolafa, J. 
 JOURNAL OF COMPUTATIONAL CHEMISTRY, 25 (3), 335-342 (2004). 
 Time-reversible always stable predictor-corrector method for molecular dynamics of polarizable molecules.
 https://doi.org/10.1002/jcc.10385

 VandeVondele, J; Hutter, J. 
 JOURNAL OF CHEMICAL PHYSICS, 118 (10), 4365-4369 (2003). 
 An efficient orbital transformation method for electronic structure
 calculations.
 https://doi.org/10.1063/1.1543154

 Hartwigsen, C; Goedecker, S; Hutter, J. 
 PHYSICAL REVIEW B, 58 (7), 3641-3662 (1998). 
 Relativistic separable dual-space Gaussian pseudopotentials from H to Rn.
 https://doi.org/10.1103/PhysRevB.58.3641

 Lippert, G; Hutter, J; Parrinello, M. 
 MOLECULAR PHYSICS, 92 (3), 477-487 (1997). 
 A hybrid Gaussian and plane wave density functional scheme.
 https://doi.org/10.1080/002689797170220

 Perdew, JP; Burke, K; Ernzerhof, M. 
 PHYSICAL REVIEW LETTERS, 77 (18), 3865-3868 (1996). 
 Generalized gradient approximation made simple.
 https://doi.org/10.1103/PhysRevLett.77.3865

 Goedecker, S; Teter, M; Hutter, J. 
 PHYSICAL REVIEW B, 54 (3), 1703-1710 (1996). 
 Separable dual-space Gaussian pseudopotentials.
 https://doi.org/10.1103/PhysRevB.54.1703

 ESSMANN, U; PERERA, L; BERKOWITZ, ML; DARDEN, T; LEE, H; PEDERSEN, LG. 
 JOURNAL OF CHEMICAL PHYSICS, 103 (19), 8577-8593 (1995). 
 A SMOOTH PARTICLE MESH EWALD METHOD.
 https://doi.org/10.1063/1.470117

 BLOCHL, PE. 
 JOURNAL OF CHEMICAL PHYSICS, 103 (17), 7422-7428 (1995). 
 ELECTROSTATIC DECOUPLING OF PERIODIC IMAGES OF PLANE-WAVE-EXPANDED
 DENSITIES AND DERIVED ATOMIC POINT CHARGES.
 https://doi.org/10.1063/1.470314


 -------------------------------------------------------------------------------
 -                                                                             -
 -                                T I M I N G                                  -
 -                                                                             -
 -------------------------------------------------------------------------------
 SUBROUTINE                       CALLS  ASD         SELF TIME        TOTAL TIME
                                MAXIMUM       AVERAGE  MAXIMUM  AVERAGE  MAXIMUM
 CP2K                                 1  1.0    0.552    0.582  544.691  544.698
 qs_mol_dyn_low                       1  2.0    0.018    0.023  479.461  481.679
 velocity_verlet                      6  3.0    0.092    0.101  387.842  387.868
 qs_forces                            7  3.9    0.001    0.002  263.735  263.769
 rebuild_ks_matrix                   63  8.5    0.000    0.000  219.417  219.449
 qs_ks_build_kohn_sham_matrix        63  9.5    0.008    0.010  219.417  219.448
 hfx_ks_matrix                       63 10.5    0.002    0.002  176.516  176.517
 qs_energies                          7  4.9    0.000    0.001  146.227  146.261
 scf_env_do_scf                       7  5.9    0.000    0.001  126.026  126.027
 qs_ks_update_qs_env_forces           7  4.9    0.000    0.000  117.357  117.360
 qmmm_forces                          7  3.9    0.087    0.092  117.188  117.205
 qmmm_forces_with_gaussian            7  4.9    0.037    0.057  114.058  116.500
 derivatives_four_center              7  8.9    0.019    0.394  107.994  107.995
 derivatives_four_center_main         7  9.9    0.002    0.002  107.268  107.269
 derivatives_four_center_bin        525 10.9   98.431  106.051   98.431  106.051
 qs_ks_update_qs_env                 63  7.8    0.000    0.001  102.067  102.095
 qmmm_el_coupling                     7  3.9    0.000    0.000   87.950   88.769
 qmmm_elec_with_gaussian              7  4.9    0.016    0.030   87.946   88.765
 scf_env_do_scf_inner_loop           56  6.8    0.002    0.005   82.996   83.020
 integrate_four_center               63 11.5    0.287    0.654   68.516   68.516
 pw_restrict_s3                      21  5.9   24.950   26.229   61.469   62.456
 qmmm_env_create                      1  2.0   16.460   18.020   62.406   62.412
 integrate_four_center_main          63 12.5    0.016    0.019   60.328   61.480
 integrate_four_center_bin         4158 13.5   60.312   61.464   60.312   61.464
 qmmm_elec_with_gaussian:spline       7  5.9    0.000    0.000   47.497   48.331
 pw_prolongate_s3                    21  6.9   18.745   19.344   47.497   48.330
 pw_transfer                       1337 12.0    0.081    0.108   42.657   45.596
 fft_wrap_pw1pw2                   1113 13.1    0.012    0.014   42.320   45.267
 fft_wrap_pw1pw2_200                707 14.4    1.076    1.316   40.890   44.017
 qmmm_force_with_gaussian_low         7  5.9    0.000    0.000   42.551   43.486
 init_scf_loop                        7  6.9    0.000    0.000   43.001   43.011
 fft3d_ps                          1113 15.1    7.723   11.812   39.404   42.218
 pw_integral_ab                    2967  7.5   39.444   41.020   40.057   41.619
 fist_init                            1  3.0    0.000    0.000   40.239   40.240
 qmmm_forces_gaussian_low_R           7  6.9    0.000    0.000   36.191   36.853
 qmmm_forces_with_gaussian_LG         7  7.9   36.191   36.853   36.191   36.853
 mp_alltoall_z22v                  1113 17.1   30.321   32.380   30.321   32.380
 qmmm_elec_with_gaussian_low          7  5.9    0.000    0.000   28.179   29.313
 yz_to_x                            518 15.7    0.436    0.505   24.610   26.504
 qmmm_elec_gaussian_low_R             7  6.9    0.000    0.000   24.647   25.551
 qmmm_elec_with_gaussian_LG           7  7.9   24.647   25.551   24.647   25.551
 force_field_control                  1  4.0    0.000    0.000   23.057   24.269
 mp_sum_dm3                          38  5.7   22.764   24.138   22.764   24.138
 rs_pw_transfer                     546 11.8    0.010    0.012   22.484   23.329
 qs_rho_update_rho                   63  7.9    0.000    0.000   22.137   22.161
 calculate_rho_elec                  63  8.9    0.035    0.062   22.137   22.161
 density_rs2pw                       63  9.9    0.004    0.005   19.428   20.475
 qs_vxc_create                       63 10.5    0.001    0.002   19.815   19.823
 xc_vxc_pw_create                    63 11.5    0.156    0.198   19.814   19.821
 rdparm_amber_8                       2  6.5   14.467   15.504   18.437   18.984
 sum_up_and_integrate                63 10.5    0.038    0.066   18.899   18.960
 integrate_v_rspace                  63 11.5    0.002    0.003   18.861   18.922
 qs_energies_init_hamiltonians        7  5.9    0.000    0.000   17.480   17.513
 qs_env_update_s_mstruct              7  6.9    0.000    0.000   17.433   17.463
 calculate_rho_core                   7  7.9    0.006    0.031   16.391   17.299
 topology_control                     1  4.0    0.000    0.000   15.887   17.173
 force_field_pack                     1  5.0    0.022    0.025   13.824   14.752
 mp_waitany                       14595 13.7   12.922   14.563   12.922   14.563
 rs_pw_transfer_RS2PW_200            70 11.7    1.492    1.915    8.744   12.956
 grid_collocate_task_list            63  9.9    2.057   12.873    2.057   12.873
 -------------------------------------------------------------------------------

 The number of warnings for this run is : 1
 
 -------------------------------------------------------------------------------
  **** **** ******  **  PROGRAM ENDED AT                 2021-04-19 14:36:07.252
 ***** ** ***  *** **   PROGRAM RAN ON                                    r1i1n8
 **    ****   ******    PROGRAM RAN BY                                    hollyj
 ***** **    ** ** **   PROGRAM PROCESS ID                                 21590
  **** **  *******  **  PROGRAM STOPPED IN /lustre/home/w68/hollyj/CP2K/Cirrus/C
                                           PU/cp2kMD/CBD_PHY-PBE0/6STEPS/8NODES/
                                           36CPN/1THREADS
