 DBCSR| CPU Multiplication driver                                           XSMM
 DBCSR| Multrec recursion limit                                              512
 DBCSR| Multiplication stack size                                           1000
 DBCSR| Maximum elements for images                                    UNLIMITED
 DBCSR| Multiplicative factor virtual images                                   1
 DBCSR| Use multiplication densification                                       T
 DBCSR| Multiplication size stacks                                             3
 DBCSR| Use memory pool for CPU allocation                                     F
 DBCSR| Number of 3D layers                                               SINGLE
 DBCSR| Use MPI memory allocation                                              F
 DBCSR| Use RMA algorithm                                                      F
 DBCSR| Use Communication thread                                               T
 DBCSR| Communication thread load                                             68
 DBCSR| MPI: My node id                                                        0
 DBCSR| MPI: Number of nodes                                                   6
 DBCSR| OMP: Current number of threads                                         6
 DBCSR| OMP: Max number of threads                                             6
 DBCSR| Split modifier for TAS multiplication algorithm                  1.0E+00


  **** **** ******  **  PROGRAM STARTED AT               2021-02-24 10:22:04.626
 ***** ** ***  *** **   PROGRAM STARTED ON                                r1i1n9
 **    ****   ******    PROGRAM STARTED BY                                hollyj
 ***** **    ** ** **   PROGRAM PROCESS ID                                 70990
  **** **  *******  **  PROGRAM STARTED IN /lustre/home/w68/hollyj/CP2K/Cirrus/C
                                           PU/cp2kMD/ClC-19/1STEPS/1NODES/36CPN/
                                           6THREADS

 CP2K| version string:                                          CP2K version 8.1
 CP2K| source code revision number:                                  git:0b61f2f
 CP2K| cp2kflags: omp libint fftw3 libxc elpa parallel mpi3 scalapack xsmm spgli
 CP2K|            b mkl
 CP2K| is freely available from                            https://www.cp2k.org/
 CP2K| Program compiled at                           Mon Feb 1 13:14:42 GMT 2021
 CP2K| Program compiled on                                         cirrus-login1
 CP2K| Program compiled for                                           Cirrus-gcc
 CP2K| Data directory path       /lustre/home/w68/hollyj/CP2K/v8.1/cp2k-8.1/data
 CP2K| Input file name                                           ClC-19-cp2k.inp

 GLOBAL| Force Environment number                                              1
 GLOBAL| Basis set file name                                        BASIS_MOLOPT
 GLOBAL| Potential file name                                           POTENTIAL
 GLOBAL| MM Potential file name                                     MM_POTENTIAL
 GLOBAL| Coordinate file name                                            ClC.pdb
 GLOBAL| Method name                                                        CP2K
 GLOBAL| Project name                                                ClC-19-BLYP
 GLOBAL| Preferred FFT library                                             FFTW3
 GLOBAL| Preferred diagonalization lib.                                     ELPA
 GLOBAL| Run type                                                             MD
 GLOBAL| All-to-all communication in single precision                          F
 GLOBAL| FFTs using library dependent lengths                                  F
 GLOBAL| Global print level                                                  LOW
 GLOBAL| MPI I/O enabled                                                       T
 GLOBAL| Total number of message passing processes                             6
 GLOBAL| Number of threads for this process                                    6
 GLOBAL| This output is from process                                           0
 GLOBAL| CPU model name                Intel(R) Xeon(R) CPU E5-2695 v4 @ 2.10GHz
 GLOBAL| CPUID                                                              1002
 GLOBAL| Compiled for CPUID                                                 1001

 *** HINT in environment.F:802 :: The compiler target flags (x86_avx) used ***
 *** to build this binary cannot exploit all extensions of this CPU model  ***
 *** (x86_avx2). Consider compiler target flags as part of FCFLAGS and     ***
 *** CFLAGS (ARCH file).                                                   ***


 MEMORY| system memory details [Kb]
 MEMORY|                        rank 0           min           max       average
 MEMORY| MemTotal            263692180     263692180     263692180     263692180
 MEMORY| MemFree             260318596     260318596     260318628     260318622
 MEMORY| Buffers                     0             0             0             0
 MEMORY| Cached                 643188        643188        643188        643188
 MEMORY| Slab                   881024        881024        881024        881024
 MEMORY| SReclaimable           211604        211604        211604        211604
 MEMORY| MemLikelyFree       261173388     261173388     261173420     261173414



                      ************* ******** ***********   
                     ************* **********************  
                     ****     **** ****      ***********   
                     ******** ****  *******     ****       
                     *******  ****   *******   ****        
                     ****     ****       ****  ****        
                     ****     **** **********  ****        
                      ****     **** ********    ****       
                     FRONTIERS IN SIMULATION TECHNOLOGY    
                                                           
                        C.J. Mundy, S. Balasubramanian,    
                     Ken Bagchi, J. Hutter, Ari Seitsonen  
                      IFW Kuo, T. Laino, J. VandeVondele   
                                 Version 1.0               

                                                           


 EWALD| Summation is done by:                                               SPME
 EWALD| Alpha parameter [       ANGSTROM^-1]                              0.4000
 EWALD| Real Space Cutoff [          ANGSTROM]                            8.4348
 EWALD| G-space max. Miller index                         80        80        80
 EWALD| Spline interpolation order                                             6

 FORCEFIELD| WARNING: A non Critical ForceField parameter is missing! CP2K GOES!
 FORCEFIELD| Non critical parameters are:Urey-Bradley,Torsions,Impropers, Opbends and 1-4
 FORCEFIELD| All missing parameters will not contribute to the potential energy!
 FORCEFIELD| Activate the print key FF_INFO to have a list of missing parameters

 CHARGE_INFO| Total Charge of the Classical System:                     0.856595

 SPLINE_INFO| Generating 49141 splines for NONBONDED14 interactions 
              Due to 313 different atomic kinds
  ...4914  ...9828  ...14742  ...19656  ...24570  ...29484  ...34398  ...39312  ...44226  ...49140
 SPLINE_INFO| Number of unique splines computed:            254
 SPLINE_INFO| Done

 SPLINE_INFO| Generating 49141 splines for NONBONDED interactions 
              Due to 313 different atomic kinds
  ...4914  ...9828  ...14742  ...19656  ...24570  ...29484  ...34398  ...39312  ...44226  ...49140
 SPLINE_INFO| Number of unique splines computed:            254
 SPLINE_INFO| Done

 *******************************************************************************
 *******************************************************************************
 **                                                                           **
 **     #####                         ##              ##                      **
 **    ##   ##            ##          ##              ##                      **
 **   ##     ##                       ##            ######                    **
 **   ##     ##  ##   ##  ##   #####  ##  ##   ####   ##    #####    #####    **
 **   ##     ##  ##   ##  ##  ##      ## ##   ##      ##   ##   ##  ##   ##   **
 **   ##  ## ##  ##   ##  ##  ##      ####     ###    ##   ######   ######    **
 **    ##  ###   ##   ##  ##  ##      ## ##      ##   ##   ##       ##        **
 **     #######   #####   ##   #####  ##  ##  ####    ##    #####   ##        **
 **           ##                                                    ##        **
 **                                                                           **
 **                                                ... make the atoms dance   **
 **                                                                           **
 **            Copyright (C) by CP2K developers group (2000 - 2020)           **
 **                      J. Chem. Phys. 152, 194103 (2020)                    **
 **                                                                           **
 *******************************************************************************


 TOTAL NUMBERS AND MAXIMUM NUMBERS

  Total number of            - Atomic kinds:                                   4
                             - Atoms:                                         21
                             - Shell sets:                                    21
                             - Shells:                                        83
                             - Primitive Cartesian functions:                147
                             - Cartesian basis functions:                    195
                             - Spherical basis functions:                    185

  Maximum angular momentum of- Orbital basis functions:                        2
                             - Local part of the GTH pseudopotential:          2
                             - Non-local part of the GTH pseudopotential:      0


 SCF PARAMETERS         Density guess:                                   RESTART
                        --------------------------------------------------------
                        max_scf:                                             300
                        max_scf_history:                                       0
                        max_diis:                                              4
                        --------------------------------------------------------
                        eps_scf:                                        1.00E-06
                        eps_scf_history:                                0.00E+00
                        eps_diis:                                       1.00E-01
                        eps_eigval:                                     1.00E-05
                        --------------------------------------------------------
                        level_shift [a.u.]:                                 0.00
                        --------------------------------------------------------
                        No outer SCF

 *******************************************************************************
 *******************************************************************************
 **                                                                           **
 **             #######  ##     ## ##     ## ##     ##                        **
 **            ##     ## ###   ### ###   ### ###   ###                        **
 **            ##     ## #### #### #### #### #### ####                        **
 **            ##     ## ## ### ## ## ### ## ## ### ##                        **
 **            ##  ## ## ##     ## ##     ## ##     ##                        **
 **            ##    ##  ##     ## ##     ## ##     ##  T.Laino and F.Mohamed **
 **             ##### ## ##     ## ##     ## ##     ##  2005 - 2015           **
 **                                                                           **
 **                                                     Calculation Started.. **
 *******************************************************************************
 *******************************************************************************

 MD_PAR| Molecular dynamics protocol (MD input parameters)
 MD_PAR| Ensemble type                                                       NVE
 MD_PAR| Number of time steps                                                  1
 MD_PAR| Time step [fs]                                                 1.000000
 MD_PAR| Temperature [K]                                              300.000000
 MD_PAR| Temperature tolerance [K]                                      0.000000
 MD_PAR| Print MD information every                                    1 step(s)
 MD_PAR| File type   Print frequency [steps]                          File names
 MD_PAR| Coordinates          1                                    CIC-pos-1.xyz
 MD_PAR| Velocities           1                                    CIC-vel-1.xyz
 MD_PAR| Energies             1                                       CIC-1.ener
 MD_PAR| Dump                20                                    CIC-1.restart

 ROT| Rotational analysis information
 ROT| Principal axes and moments of inertia [a.u.]
 ROT|                           1                   2                   3
 ROT| Eigenvalues      1.18228221563E+13   1.18772146411E+13   1.55923586977E+13
 ROT|      x             -0.973134378681     -0.230223222672      0.002597839626
 ROT|      y             -0.230225448758      0.973137141292     -0.000589052320
 ROT|      z              0.002392440703      0.001171315857      0.999996452117
 ROT| Number of rotovibrational vectors                                        6

 DOF| Calculation of degrees of freedom
 DOF| Number of atoms                                                     150925
 DOF| Number of intramolecular constraints                                     0
 DOF| Number of intermolecular constraints                                     0
 DOF| Invariants (translations + rotations)                                    3
 DOF| Degrees of freedom                                                  452772

 DOF| Restraints information
 DOF| Number of intramolecular restraints                                      0
 DOF| Number of intermolecular restraints                                      0

 MD_VEL| Velocities initialization
 MD_VEL| Initial temperature [K]                                      300.000000
 MD_VEL| COM velocity            -0.0000000000     0.0000000000     0.0000000000

  Translating the system in order to center the QM fragment in the QM box.

 Number of electrons:                                                         58
 Number of occupied orbitals:                                                 29
 Number of molecular orbitals:                                                29

 Number of orbital functions:                                                185
 Number of independent orbital functions:                                    185

 Extrapolation method: initial_guess


 SCF WAVEFUNCTION OPTIMIZATION

  ----------------------------------- OT ---------------------------------------
  Minimizer      : DIIS                : direct inversion
                                         in the iterative subspace
                                         using   7 DIIS vectors
                                         safer DIIS on
  Preconditioner : FULL_ALL            : diagonalization, state selective
  Precond_solver : DEFAULT
  stepsize       :    0.15000000                  energy_gap     :    0.08000000
  eps_taylor     :   0.10000E-15                  max_taylor     :             4
  ----------------------------------- OT ---------------------------------------

  Step     Update method      Time    Convergence         Total energy    Change
  ------------------------------------------------------------------------------
  Decoupling Energy:                                               0.0436562741
  Recoupling Energy:                                              -0.0063494342
     1 OT DIIS     0.15E+00    0.9     0.00000182      -112.6112974748 -1.13E+02
  Decoupling Energy:                                               0.0436561268
  Recoupling Energy:                                              -0.0063494341
     2 OT DIIS     0.15E+00    1.1     0.00000240      -112.6112974764 -1.50E-09
  Decoupling Energy:                                               0.0436563219
  Recoupling Energy:                                              -0.0063494343
     3 OT DIIS     0.15E+00    1.1     0.00000182      -112.6112974770 -5.98E-10
  Decoupling Energy:                                               0.0436561686
  Recoupling Energy:                                              -0.0063494341
     4 OT DIIS     0.15E+00    1.1     0.00000200      -112.6112974776 -6.69E-10
  Decoupling Energy:                                               0.0436562000
  Recoupling Energy:                                              -0.0063494342
     5 OT DIIS     0.15E+00    1.1     0.00000079      -112.6112974786 -9.66E-10

  *** SCF run converged in     5 steps ***


  Electronic density on regular grids:        -58.0000000031       -0.0000000031
  Core density on regular grids:               59.0000000000       -0.0000000000
  Total charge density on r-space grids:        0.9999999969
  Total charge density g-space grids:           0.9999999969

  Overlap energy of the core charge distribution:               0.00000276462327
  Self energy of the core charge distribution:               -262.49982108018173
  Core Hamiltonian energy:                                     77.82713604552632
  Hartree energy:                                             108.26024348689712
  Exchange-correlation energy:                                -27.74149564710898
  QM/MM Electrostatic energy:                                  -8.45736304834417

  Total energy:                                              -112.61129747858817
  Decoupling Energy:                                               0.0436562428
  Recoupling Energy:                                              -0.0063494344

 ENERGY| Total FORCE_EVAL ( QMMM ) energy [a.u.]:           -574.282125877750673

 MD_INI| MD initialization
 MD_INI| Potential energy [hartree]                          -0.574282125878E+03
 MD_INI| Total kinetic energy [hartree]                       0.215076797492E+03
 MD_INI| QM kinetic energy [hartree]                          0.263607482367E-01
 MD_INI| Total temperature [K]                                        300.000000
 MD_INI| QM temperature [K]                                           264.255746
 MD_INI| Cell volume [bohr^3]                                 9.853827160554E+06
 MD_INI| Cell volume [ang^3]                                  1.460186515536E+06
 MD_INI| Cell lengths [bohr]      2.39870119E+02  2.39870119E+02  1.71258698E+02
 MD_INI| Cell lengths [ang]       1.26933800E+02  1.26933800E+02  9.06262000E+01
 MD_INI| Cell angles [deg]        9.00000000E+01  9.00000000E+01  9.00000000E+01

  Translating the system in order to center the QM fragment in the QM box.

 Number of electrons:                                                         58
 Number of occupied orbitals:                                                 29
 Number of molecular orbitals:                                                29

 Number of orbital functions:                                                185
 Number of independent orbital functions:                                    185

 Extrapolation method: ASPC


 SCF WAVEFUNCTION OPTIMIZATION

  ----------------------------------- OT ---------------------------------------
  Minimizer      : DIIS                : direct inversion
                                         in the iterative subspace
                                         using   7 DIIS vectors
                                         safer DIIS on
  Preconditioner : FULL_ALL            : diagonalization, state selective
  Precond_solver : DEFAULT
  stepsize       :    0.15000000                  energy_gap     :    0.08000000
  eps_taylor     :   0.10000E-15                  max_taylor     :             4
  ----------------------------------- OT ---------------------------------------

  Step     Update method      Time    Convergence         Total energy    Change
  ------------------------------------------------------------------------------
  Decoupling Energy:                                               0.0436638312
  Recoupling Energy:                                              -0.0063493931
     1 OT DIIS     0.15E+00    0.8     0.00128847      -112.5701658558 -1.13E+02
  Decoupling Energy:                                               0.0435725349
  Recoupling Energy:                                              -0.0063490919
     2 OT DIIS     0.15E+00    1.1     0.00117277      -112.5707957167 -6.30E-04
  Decoupling Energy:                                               0.0436794857
  Recoupling Energy:                                              -0.0063494033
     3 OT DIIS     0.15E+00    1.1     0.00106621      -112.5709080938 -1.12E-04
  Decoupling Energy:                                               0.0436555304
  Recoupling Energy:                                              -0.0063493377
     4 OT DIIS     0.15E+00    1.1     0.00054258      -112.5710430825 -1.35E-04
  Decoupling Energy:                                               0.0436136304
  Recoupling Energy:                                              -0.0063492191
     5 OT DIIS     0.15E+00    1.1     0.00042770      -112.5710771372 -3.41E-05
  Decoupling Energy:                                               0.0436405133
  Recoupling Energy:                                              -0.0063492662
     6 OT DIIS     0.15E+00    1.1     0.00015610      -112.5710919046 -1.48E-05
  Decoupling Energy:                                               0.0436362635
  Recoupling Energy:                                              -0.0063493091
     7 OT DIIS     0.15E+00    1.1     0.00010447      -112.5710969845 -5.08E-06
  Decoupling Energy:                                               0.0436367088
  Recoupling Energy:                                              -0.0063492782
     8 OT DIIS     0.15E+00    1.1     0.00006947      -112.5711018745 -4.89E-06
  Decoupling Energy:                                               0.0436342406
  Recoupling Energy:                                              -0.0063492680
     9 OT DIIS     0.15E+00    1.1     0.00005887      -112.5711079602 -6.09E-06
  Decoupling Energy:                                               0.0436357469
  Recoupling Energy:                                              -0.0063492717
    10 OT DIIS     0.15E+00    1.1     0.00005134      -112.5711127530 -4.79E-06
  Decoupling Energy:                                               0.0436354455
  Recoupling Energy:                                              -0.0063492607
    11 OT DIIS     0.15E+00    1.1     0.00004543      -112.5711155149 -2.76E-06
  Decoupling Energy:                                               0.0436337136
  Recoupling Energy:                                              -0.0063492487
    12 OT DIIS     0.15E+00    1.1     0.00004713      -112.5711177162 -2.20E-06
  Decoupling Energy:                                               0.0436330885
  Recoupling Energy:                                              -0.0063492432
    13 OT DIIS     0.15E+00    1.1     0.00004290      -112.5711188527 -1.14E-06
  Decoupling Energy:                                               0.0436360387
  Recoupling Energy:                                              -0.0063492432
    14 OT DIIS     0.15E+00    1.1     0.00005298      -112.5711204729 -1.62E-06
  Decoupling Energy:                                               0.0436334053
  Recoupling Energy:                                              -0.0063492363
    15 OT DIIS     0.15E+00    1.1     0.00003866      -112.5711231586 -2.69E-06
  Decoupling Energy:                                               0.0436327091
  Recoupling Energy:                                              -0.0063492116
    16 OT DIIS     0.15E+00    1.1     0.00003481      -112.5711248022 -1.64E-06
  Decoupling Energy:                                               0.0436311761
  Recoupling Energy:                                              -0.0063491941
    17 OT DIIS     0.15E+00    1.1     0.00002605      -112.5711275089 -2.71E-06
  Decoupling Energy:                                               0.0436315667
  Recoupling Energy:                                              -0.0063491836
    18 OT DIIS     0.15E+00    1.1     0.00002405      -112.5711291986 -1.69E-06
  Decoupling Energy:                                               0.0436302361
  Recoupling Energy:                                              -0.0063491683
    19 OT DIIS     0.15E+00    1.1     0.00001910      -112.5711300851 -8.86E-07
  Decoupling Energy:                                               0.0436280569
  Recoupling Energy:                                              -0.0063491582
    20 OT DIIS     0.15E+00    1.1     0.00002582      -112.5711305508 -4.66E-07
  Decoupling Energy:                                               0.0436288821
  Recoupling Energy:                                              -0.0063491549
    21 OT DIIS     0.15E+00    1.1     0.00001507      -112.5711306192 -6.84E-08
  Decoupling Energy:                                               0.0436298689
  Recoupling Energy:                                              -0.0063491547
    22 OT DIIS     0.15E+00    1.1     0.00001828      -112.5711307058 -8.66E-08
  Decoupling Energy:                                               0.0436285339
  Recoupling Energy:                                              -0.0063491528
    23 OT DIIS     0.15E+00    1.1     0.00001011      -112.5711307505 -4.46E-08
  Decoupling Energy:                                               0.0436284907
  Recoupling Energy:                                              -0.0063491487
    24 OT DIIS     0.15E+00    1.1     0.00000640      -112.5711307614 -1.09E-08
  Decoupling Energy:                                               0.0436283005
  Recoupling Energy:                                              -0.0063491477
    25 OT DIIS     0.15E+00    1.1     0.00000372      -112.5711307573  4.06E-09
  Decoupling Energy:                                               0.0436284455
  Recoupling Energy:                                              -0.0063491484
    26 OT DIIS     0.15E+00    1.1     0.00000312      -112.5711307613 -3.97E-09
  Decoupling Energy:                                               0.0436283450
  Recoupling Energy:                                              -0.0063491479
    27 OT DIIS     0.15E+00    1.1     0.00000280      -112.5711307611  1.58E-10
  Decoupling Energy:                                               0.0436282356
  Recoupling Energy:                                              -0.0063491479
    28 OT DIIS     0.15E+00    1.1     0.00000291      -112.5711307631 -2.02E-09
  Decoupling Energy:                                               0.0436283406
  Recoupling Energy:                                              -0.0063491483
    29 OT DIIS     0.15E+00    1.1     0.00000257      -112.5711307681 -5.01E-09
  Decoupling Energy:                                               0.0436285260
  Recoupling Energy:                                              -0.0063491490
    30 OT DIIS     0.15E+00    1.1     0.00000329      -112.5711307711 -2.95E-09
  Decoupling Energy:                                               0.0436283640
  Recoupling Energy:                                              -0.0063491495
    31 OT DIIS     0.15E+00    1.1     0.00000237      -112.5711307780 -6.89E-09
  Decoupling Energy:                                               0.0436283412
  Recoupling Energy:                                              -0.0063491485
    32 OT DIIS     0.15E+00    1.1     0.00000230      -112.5711307783 -3.42E-10
  Decoupling Energy:                                               0.0436284003
  Recoupling Energy:                                              -0.0063491498
    33 OT DIIS     0.15E+00    1.1     0.00000153      -112.5711307860 -7.68E-09
  Decoupling Energy:                                               0.0436284858
  Recoupling Energy:                                              -0.0063491505
    34 OT DIIS     0.15E+00    1.1     0.00000139      -112.5711307897 -3.73E-09
  Decoupling Energy:                                               0.0436284818
  Recoupling Energy:                                              -0.0063491508
    35 OT DIIS     0.15E+00    1.1     0.00000114      -112.5711307929 -3.19E-09
  Decoupling Energy:                                               0.0436284929
  Recoupling Energy:                                              -0.0063491515
    36 OT DIIS     0.15E+00    1.1     0.00000117      -112.5711307963 -3.42E-09
  Decoupling Energy:                                               0.0436285698
  Recoupling Energy:                                              -0.0063491519
    37 OT DIIS     0.15E+00    1.1     0.00000143      -112.5711307974 -1.05E-09
  Decoupling Energy:                                               0.0436286741
  Recoupling Energy:                                              -0.0063491525
    38 OT DIIS     0.15E+00    1.1     0.00000144      -112.5711307987 -1.29E-09
  Decoupling Energy:                                               0.0436285930
  Recoupling Energy:                                              -0.0063491528
    39 OT DIIS     0.15E+00    1.1     0.00000072      -112.5711307993 -5.70E-10

  *** SCF run converged in    39 steps ***


  Electronic density on regular grids:        -57.9999999980        0.0000000020
  Core density on regular grids:               59.0000000000       -0.0000000000
  Total charge density on r-space grids:        1.0000000020
  Total charge density g-space grids:           1.0000000020

  Overlap energy of the core charge distribution:               0.00000254932108
  Self energy of the core charge distribution:               -262.49982108018173
  Core Hamiltonian energy:                                     77.74842963496064
  Hartree energy:                                             108.31580477084921
  Exchange-correlation energy:                                -27.71946814801709
  QM/MM Electrostatic energy:                                  -8.41607852619149

  Total energy:                                              -112.57113079925935
  Decoupling Energy:                                               0.0436285927
  Recoupling Energy:                                              -0.0063491525

 ENERGY| Total FORCE_EVAL ( QMMM ) energy [a.u.]:           -552.394403094793006

 MD| ***************************************************************************
 MD| Step number                                                               1
 MD| Time [fs]                                                          1.000000
 MD| Conserved quantity [hartree]                            -0.353696654773E+03
 MD| ---------------------------------------------------------------------------
 MD|                                          Instantaneous             Averages
 MD| CPU time per MD step [s]                    130.979055           130.979055
 MD| Energy drift per atom [K]           0.115255886745E+02   0.000000000000E+00
 MD| Potential energy [hartree]         -0.552394403095E+03  -0.552394403095E+03
 MD| Total kinetic energy [hartree]      0.198697748322E+03   0.198697748322E+03
 MD| QM kinetic energy [hartree]         0.283943539776E-01   0.283943539776E-01
 MD| Total temperature [K]                       277.153673           277.153673
 MD| QM temperature [K]                          284.641814           284.641814
 MD| ***************************************************************************

 -------------------------------------------------------------------------------
 -                                                                             -
 -                                DBCSR STATISTICS                             -
 -                                                                             -
 -------------------------------------------------------------------------------
 COUNTER                                    TOTAL       BLAS       SMM       ACC
 flops    10 x    29 x    23              1227280       0.0%    100.0%      0.0%
 flops     5 x    29 x    23              1840920       0.0%    100.0%      0.0%
 flops    10 x    29 x    31              3308320       0.0%    100.0%      0.0%
 flops    10 x    29 x    29              3734040       0.0%    100.0%      0.0%
 flops    10 x    29 x    36              3841920       0.0%    100.0%      0.0%
 flops    18 x    29 x    23              4418208       0.0%    100.0%      0.0%
 flops     5 x     5 x    29              4593600       0.0%    100.0%      0.0%
 flops    13 x    29 x    23              4786392       0.0%    100.0%      0.0%
 flops     5 x    29 x    31              4962480       0.0%    100.0%      0.0%
 flops     5 x    29 x    29              5601060       0.0%    100.0%      0.0%
 flops     5 x    29 x    36              5762880       0.0%    100.0%      0.0%
 flops    29 x    29 x    23              6886108       0.0%    100.0%      0.0%
 flops    13 x     5 x    29              9952800       0.0%    100.0%      0.0%
 flops     5 x    13 x    29              9952800       0.0%    100.0%      0.0%
 flops    18 x    29 x    31             11909952       0.0%    100.0%      0.0%
 flops    13 x    29 x    31             12902448       0.0%    100.0%      0.0%
 flops    18 x    29 x    29             13442544       0.0%    100.0%      0.0%
 flops    18 x    29 x    36             13830912       0.0%    100.0%      0.0%
 flops    13 x    29 x    29             14562756       0.0%    100.0%      0.0%
 flops    13 x    29 x    36             14983488       0.0%    100.0%      0.0%
 flops     5 x    29 x     5             17895900       0.0%    100.0%      0.0%
 flops    29 x    29 x    31             18562552       0.0%    100.0%      0.0%
 flops    29 x    29 x    29             19559978       0.0%    100.0%      0.0%
 flops    29 x    29 x    36             21556512       0.0%    100.0%      0.0%
 flops    13 x    13 x    29             25877280       0.0%    100.0%      0.0%
 flops    13 x    29 x     5             42299400       0.0%    100.0%      0.0%
 flops     5 x    29 x    13             42299400       0.0%    100.0%      0.0%
 flops    13 x    29 x    13             99980400       0.0%    100.0%      0.0%
 flops inhomo. stacks                   189768924     100.0%      0.0%      0.0%
 flops total                       630.301254E+06      30.1%     69.9%      0.0%
 flops max/rank                    285.830438E+06      31.3%     68.7%      0.0%
 matmuls inhomo. stacks                      4102     100.0%      0.0%      0.0%
 matmuls total                              67601       6.1%     93.9%      0.0%
 number of processed stacks                 37019      11.1%     88.9%      0.0%
 average stack size                                     1.0       1.9       0.0
 marketing flops                   625.028480E+06
 -------------------------------------------------------------------------------
 # multiplications                           1045
 max memory usage/rank               1.468396E+09
 # max total images/rank                        3
 # max 3D layers                                1
 # MPI messages exchanged                   43890
 MPI messages size (bytes):
  total size                       119.479176E+06
  min size                           0.000000E+00
  max size                          22.040000E+03
  average size                       2.722241E+03
 MPI breakdown and total messages size (bytes):
             size <=      128               32217                        0
       128 < size <=     8192                5323                 35151944
      8192 < size <=    32768                6350                 84327232
     32768 < size <=   131072                   0                        0
    131072 < size <=  4194304                   0                        0
   4194304 < size <= 16777216                   0                        0
  16777216 < size                               0                        0
 -------------------------------------------------------------------------------

 *** WARNING in dbcsr_mm.F:294 :: Using a non-square number of MPI ranks ***
 *** might lead to poor performance. Used ranks: 6 Suggested: 4 9        ***

 -------------------------------------------------------------------------------
 -                                                                             -
 -                      DBCSR MESSAGE PASSING PERFORMANCE                      -
 -                                                                             -
 -------------------------------------------------------------------------------
 ROUTINE             CALLS      AVE VOLUME [Bytes]
 MP_Bcast               29                     12.
 MP_Allreduce         5629                      8.
 MP_Alltoall          3215                   2160.
 MP_ISend            19406                   2047.
 MP_IRecv            19858                   1467.
 -------------------------------------------------------------------------------

 -------------------------------------------------------------------------------
 -                                                                             -
 -                                GRID STATISTICS                              -
 -                                                                             -
 -------------------------------------------------------------------------------
 LP    KERNEL             BACKEND                              COUNT     PERCENT
 3     collocate ortho    REF                                 229954      23.05%
 3     integrate ortho    REF                                 227084      22.76%
 2     collocate ortho    REF                                 163910      16.43%
 2     integrate ortho    REF                                 156782      15.72%
 4     integrate ortho    REF                                 110123      11.04%
 4     collocate ortho    REF                                 104680      10.49%
 5     integrate ortho    REF                                   4555       0.46%
 0     collocate general  REF                                    252       0.03%
 1     integrate general  REF                                    252       0.03%
 -------------------------------------------------------------------------------

 MEMORY| Estimated peak process memory [MiB]                                1449

 -------------------------------------------------------------------------------
 -                                                                             -
 -                         MESSAGE PASSING PERFORMANCE                         -
 -                                                                             -
 -------------------------------------------------------------------------------

 ROUTINE             CALLS      AVE VOLUME [Bytes]
 MP_Group                8
 MP_Bcast             8548               10563838.
 MP_Allreduce         1324                 287814.
 MP_Sync                 7
 MP_Alltoall           912               61697280.
 MP_ISendRecv         1380                 639576.
 MP_Wait              2446
 MP_ISend              850                3719487.
 MP_IRecv              848                3727500.
 MP_Recv                 3                  22200.
 -------------------------------------------------------------------------------


 -------------------------------------------------------------------------------
 -                                                                             -
 -                           R E F E R E N C E S                               -
 -                                                                             -
 -------------------------------------------------------------------------------
 
 CP2K version 8.1, the CP2K developers group (2020).
 CP2K is freely available from https://www.cp2k.org/ .

 Kuehne,Thomas D.; Iannuzzi,Marcella; Del Ben,Mauro;
 Rybkin,Vladimir V.; Seewald,Patrick; Stein,Frederick; Laino,Teodoro;
 Khaliullin,Rustam Z.; Schuett,Ole; Schiffmann,Florian; Golze,Dorothea;
 Wilhelm,Jan; Chulkov,Sergey; Bani-Hashemian,Mohammad Hossein;
 Weber,Valery; Borstnik,Urban; Taillefumier,Mathieu;
 Jakobovits,Alice Shoshana; Lazzaro,Alfio; Pabst,Hans; Mueller,Tiziano;
 Schade,Robert; Guidon,Manuel; Andermatt,Samuel; Holmberg,Nico;
 Schenter,Gregory K.; Hehn,Anna; Bussy,Augustin; Belleflamme,Fabian;
 Tabacchi,Gloria; Gloess,Andreas; Lass,Michael; Bethune,Iain;
 Mundy,Christopher J.; Plessl,Christian; Watkins,Matt;
 VandeVondele,Joost; Krack,Matthias; Hutter,Juerg. 
 The Journal of Chemical Physics, 152 (19), (2020). 
 CP2K: An electronic structure and molecular dynamics software package -
 Quickstep: Efficient and accurate electronic structure calculations.
 https://doi.org/10.1063/5.0007045

 Schuett, Ole; Messmer, Peter; Hutter, Juerg; VandeVondele, Joost. 
 Electronic Structure Calculations on Graphics Processing Units, John
 Wiley & Sons, Ltd, 173-190 (2016). 
 GPU-Accelerated Sparse Matrix-Matrix Multiplication for
 Linear Scaling Density Functional Theory.
 https://doi.org/10.1002/9781118670712.ch8

 Borstnik, U; VandeVondele, J; Weber, V; Hutter, J. 
 PARALLEL COMPUTING, 40 (5-6), 47-58 (2014). 
 Sparse matrix multiplication: The distributed block-compressed sparse
 row library.
 https://doi.org/10.1016/j.parco.2014.03.012

 Hutter, J; Iannuzzi, M; Schiffmann, F; VandeVondele, J. 
 WIREs Comput Mol Sci., 4 (1), 15-25 (2014). 
 CP2K: atomistic simulations of condensed matter systems.
 https://doi.org/10.1002/wcms.1159

 Marek, A; Blum, V; Johanni, R; Havu, V; Lang, B; Auckenthaler, T;
 Heinecke, A; Bungartz, H; Lederer, H. 
 Journal of Physics: Condensed Matter, 26 (21), (2014). 
 The ELPA library: scalable parallel eigenvalue solutions for
 electronic structure
 theory and computational science.
 https://doi.org/10.1088/0953-8984/26/21/213201

 VandeVondele, J; Hutter, J. 
 JOURNAL OF CHEMICAL PHYSICS, 127 (11), 114105 (2007). 
 Gaussian basis sets for accurate calculations on molecular systems in
 gas and condensed phases.
 https://doi.org/10.1063/1.2770708

 Kuhne, TD; Krack, M; Mohamed, FR; Parrinello, M. 
 PHYSICAL REVIEW LETTERS, 98 (6), 066401 (2007). 
 Efficient and accurate Car-Parrinello-like approach to
 Born-Oppenheimer molecular dynamics.
 https://doi.org/10.1103/PhysRevLett.98.066401

 Laino, T; Mohamed, F; Laio, A; Parrinello, M. 
 JOURNAL OF CHEMICAL THEORY AND COMPUTATION, 2 (5), 1370-1378 (2006). 
 An efficient linear-scaling electrostatic coupling for treating
 periodic boundary conditions in QM/MM simulations.
 https://doi.org/10.1021/ct6001169

 Laino, T; Mohamed, F; Laio, A; Parrinello, M. 
 JOURNAL OF CHEMICAL THEORY AND COMPUTATION, 1 (6), 1176-1184 (2005). 
 An efficient real space multigrid QM/MM electrostatic coupling.
 https://doi.org/10.1021/ct050123f

 Krack, M. 
 THEORETICAL CHEMISTRY ACCOUNTS, 114 (1-3), 145-152 (2005). 
 Pseudopotentials for H to Kr optimized for gradient-corrected
 exchange-correlation functionals.
 https://doi.org/10.1007/s00214-005-0655-y

 VandeVondele, J; Krack, M; Mohamed, F; Parrinello, M; Chassaing, T;
 Hutter, J. COMPUTER PHYSICS COMMUNICATIONS, 167 (2), 103-128 (2005). 
 QUICKSTEP: Fast and accurate density functional calculations using a
 mixed Gaussian and plane waves approach.
 https://doi.org/10.1016/j.cpc.2004.12.014

 Frigo, M; Johnson, SG. 
 PROCEEDINGS OF THE IEEE, 93 (2), 216-231 (2005). 
 The design and implementation of FFTW3.
 https://doi.org/10.1109/JPROC.2004.840301

 Kolafa, J. 
 JOURNAL OF COMPUTATIONAL CHEMISTRY, 25 (3), 335-342 (2004). 
 Time-reversible always stable predictor-corrector method for molecular dynamics of polarizable molecules.
 https://doi.org/10.1002/jcc.10385

 VandeVondele, J; Hutter, J. 
 JOURNAL OF CHEMICAL PHYSICS, 118 (10), 4365-4369 (2003). 
 An efficient orbital transformation method for electronic structure
 calculations.
 https://doi.org/10.1063/1.1543154

 Hartwigsen, C; Goedecker, S; Hutter, J. 
 PHYSICAL REVIEW B, 58 (7), 3641-3662 (1998). 
 Relativistic separable dual-space Gaussian pseudopotentials from H to Rn.
 https://doi.org/10.1103/PhysRevB.58.3641

 Lippert, G; Hutter, J; Parrinello, M. 
 MOLECULAR PHYSICS, 92 (3), 477-487 (1997). 
 A hybrid Gaussian and plane wave density functional scheme.
 https://doi.org/10.1080/002689797170220

 Goedecker, S; Teter, M; Hutter, J. 
 PHYSICAL REVIEW B, 54 (3), 1703-1710 (1996). 
 Separable dual-space Gaussian pseudopotentials.
 https://doi.org/10.1103/PhysRevB.54.1703

 ESSMANN, U; PERERA, L; BERKOWITZ, ML; DARDEN, T; LEE, H; PEDERSEN, LG. 
 JOURNAL OF CHEMICAL PHYSICS, 103 (19), 8577-8593 (1995). 
 A SMOOTH PARTICLE MESH EWALD METHOD.
 https://doi.org/10.1063/1.470117

 BLOCHL, PE. 
 JOURNAL OF CHEMICAL PHYSICS, 103 (17), 7422-7428 (1995). 
 ELECTROSTATIC DECOUPLING OF PERIODIC IMAGES OF PLANE-WAVE-EXPANDED
 DENSITIES AND DERIVED ATOMIC POINT CHARGES.
 https://doi.org/10.1063/1.470314

 BECKE, AD. PHYSICAL REVIEW A, 38 (6), 3098-3100 (1988). 
 DENSITY-FUNCTIONAL EXCHANGE-ENERGY APPROXIMATION WITH CORRECT
 ASYMPTOTIC-BEHAVIOR.
 https://doi.org/10.1103/PhysRevA.38.3098

 LEE, CT; YANG, WT; PARR, RG. 
 PHYSICAL REVIEW B, 37 (2), 785-789 (1988). 
 DEVELOPMENT OF THE COLLE-SALVETTI CORRELATION-ENERGY FORMULA INTO A
 FUNCTIONAL OF THE ELECTRON-DENSITY.
 https://doi.org/10.1103/PhysRevB.37.785


 -------------------------------------------------------------------------------
 -                                                                             -
 -                                T I M I N G                                  -
 -                                                                             -
 -------------------------------------------------------------------------------
 SUBROUTINE                       CALLS  ASD         SELF TIME        TOTAL TIME
                                MAXIMUM       AVERAGE  MAXIMUM  AVERAGE  MAXIMUM
 CP2K                                 1  1.0    0.170    0.176  204.573  204.574
 qs_mol_dyn_low                       1  2.0    0.007    0.008  132.357  133.880
 velocity_verlet                      1  3.0    0.006    0.007   83.076   83.163
 qmmm_env_create                      1  2.0   11.425   11.816   70.486   70.491
 fist_init                            1  3.0    0.000    0.000   54.754   54.754
 qs_forces                            2  3.5    0.000    0.000   50.791   50.792
 qs_energies                          2  4.5    0.000    0.000   49.116   49.117
 scf_env_do_scf                       2  5.5    0.000    0.000   48.177   48.177
 scf_env_do_scf_inner_loop           44  6.9    0.001    0.003   46.536   46.538
 rebuild_ks_matrix                   46  8.7    0.000    0.000   35.403   35.406
 qs_ks_build_kohn_sham_matrix        46  9.7    0.006    0.007   35.403   35.406
 qmmm_el_coupling                     2  3.5    0.000    0.000   35.153   35.174
 qmmm_elec_with_gaussian              2  4.5    0.010    0.010   35.151   35.171
 qs_ks_update_qs_env                 46  7.9    0.000    0.000   33.774   33.777
 rdparm_amber_8                       2  6.5   27.731   29.280   33.517   33.717
 force_field_control                  1  4.0    0.000    0.000   32.763   33.037
 qmmm_elec_with_gaussian_low          2  5.5    0.000    0.000   28.645   32.675
 qmmm_forces                          2  3.5    0.006    0.006   32.373   32.373
 qmmm_forces_with_gaussian            2  4.5    0.016    0.017   31.837   32.227
 qmmm_force_with_gaussian_low         2  5.5    0.000    0.000   29.270   29.647
 pw_transfer                        942 12.4    0.083    0.099   28.042   28.322
 fft_wrap_pw1pw2                    794 13.4    0.011    0.014   27.477   27.769
 fft_wrap_pw1pw2_200                510 14.6    2.528    2.581   26.945   27.203
 qmmm_forces_gaussian_low_R           2  6.5    0.000    0.000   23.794   23.864
 qmmm_forces_with_gaussian_LG         2  7.5   23.794   23.864   23.794   23.864
 qs_vxc_create                       46 10.7    0.001    0.001   22.897   22.899
 xc_vxc_pw_create                    46 11.7    0.665    0.725   22.896   22.899
 topology_control                     1  4.0    0.000    0.000   21.878   22.382
 fft3d_ps                           794 15.4   12.819   13.034   19.690   20.117
 connectivity_control                 2  4.0    0.000    0.000   17.484   18.039
 read_force_field_amber               1  5.0    0.006    0.006   17.139   17.336
 qmmm_elec_gaussian_low_R             2  6.5    0.000    0.000   16.942   17.254
 qmmm_elec_with_gaussian_LG           2  7.5   16.942   17.254   16.942   17.254
 read_connectivity_amber              1  6.0    0.000    0.000   16.384   16.387
 qmmm_elec_gaussian_low_G             2  6.5   11.703   15.920   11.703   15.920
 force_field_pack                     1  5.0    0.008    0.008   15.553   15.673
 qs_rho_update_rho                   46  7.9    0.000    0.000   14.006   14.006
 calculate_rho_elec                  46  8.9    0.364    0.368   14.006   14.006
 force_field_pack_ub                  1  6.0   11.620   11.745   11.620   11.745
 fist_calc_energy_force               2  3.5    0.015    0.015   11.583   11.596
 xc_rho_set_and_dset_create          46 12.7    0.854    0.879   11.309   11.378
 mp_sum_dm3                          13  5.2    7.238    8.739    7.238    8.739
 density_rs2pw                       46  9.9    0.002    0.003    7.084    7.295
 list_control                         2  4.5    0.011    0.011    6.865    7.012
 build_fist_neighbor_lists            1  5.0    0.000    0.000    6.848    6.996
 grid_collocate_task_list            46  9.9    6.528    6.641    6.528    6.641
 build_neighbor_lists                 1  6.0    5.862    6.009    5.862    6.009
 qmmm_forces_gaussian_low_G           2  6.5    5.476    5.834    5.476    5.834
 sum_up_and_integrate                46 10.7    0.133    0.136    5.798    5.802
 integrate_v_rspace                  46 11.7    0.001    0.001    5.665    5.670
 mp_alltoall_z22v                   794 17.4    4.556    4.739    4.556    4.739
 parser_read_line               1179731  7.6    0.222    0.233    3.963    4.716
 pw_integral_ab                     974  7.4    4.572    4.592    4.646    4.671
 potential_pw2rs                     46 12.7    0.012    0.012    4.533    4.538
 parser_read_line_low              1188  8.6    0.384    1.323    3.741    4.505
 broadcast_input_information       1188  9.6    0.004    0.004    3.357    4.314
 -------------------------------------------------------------------------------

 The number of warnings for this run is : 1
 
 -------------------------------------------------------------------------------
  **** **** ******  **  PROGRAM ENDED AT                 2021-02-24 10:25:29.339
 ***** ** ***  *** **   PROGRAM RAN ON                                    r1i1n9
 **    ****   ******    PROGRAM RAN BY                                    hollyj
 ***** **    ** ** **   PROGRAM PROCESS ID                                 70990
  **** **  *******  **  PROGRAM STOPPED IN /lustre/home/w68/hollyj/CP2K/Cirrus/C
                                           PU/cp2kMD/ClC-19/1STEPS/1NODES/36CPN/
                                           6THREADS
