 DBCSR| CPU Multiplication driver                                           XSMM
 DBCSR| Multrec recursion limit                                              512
 DBCSR| Multiplication stack size                                           1000
 DBCSR| Maximum elements for images                                    UNLIMITED
 DBCSR| Multiplicative factor virtual images                                   1
 DBCSR| Use multiplication densification                                       T
 DBCSR| Multiplication size stacks                                             3
 DBCSR| Use memory pool for CPU allocation                                     F
 DBCSR| Number of 3D layers                                               SINGLE
 DBCSR| Use MPI memory allocation                                              F
 DBCSR| Use RMA algorithm                                                      F
 DBCSR| Use Communication thread                                               T
 DBCSR| Communication thread load                                             87
 DBCSR| MPI: My node id                                                        0
 DBCSR| MPI: Number of nodes                                                 288
 DBCSR| OMP: Current number of threads                                         1
 DBCSR| OMP: Max number of threads                                             1
 DBCSR| Split modifier for TAS multiplication algorithm                  1.0E+00


  **** **** ******  **  PROGRAM STARTED AT               2021-04-19 14:03:52.150
 ***** ** ***  *** **   PROGRAM STARTED ON                                r1i1n8
 **    ****   ******    PROGRAM STARTED BY                                hollyj
 ***** **    ** ** **   PROGRAM PROCESS ID                                 17803
  **** **  *******  **  PROGRAM STARTED IN /lustre/home/w68/hollyj/CP2K/Cirrus/C
                                           PU/cp2kMD/CBD_PHY-PBE0/1STEPS/8NODES/
                                           36CPN/1THREADS

 CP2K| version string:                                          CP2K version 8.1
 CP2K| source code revision number:                                  git:0b61f2f
 CP2K| cp2kflags: omp libint fftw3 libxc elpa parallel mpi3 scalapack xsmm spgli
 CP2K|            b mkl
 CP2K| is freely available from                            https://www.cp2k.org/
 CP2K| Program compiled at                           Mon Feb 1 13:14:42 GMT 2021
 CP2K| Program compiled on                                         cirrus-login1
 CP2K| Program compiled for                                           Cirrus-gcc
 CP2K| Data directory path       /lustre/home/w68/hollyj/CP2K/v8.1/cp2k-8.1/data
 CP2K| Input file name                                          CBD_PHY-cp2k.inp

 GLOBAL| Force Environment number                                              1
 GLOBAL| Basis set file name                                           HFX_BASIS
 GLOBAL| Potential file name                                           POTENTIAL
 GLOBAL| MM Potential file name                                     MM_POTENTIAL
 GLOBAL| Coordinate file name                                        CBD_PHY.pdb
 GLOBAL| Method name                                                        CP2K
 GLOBAL| Project name                                               CBD_PHY-PBE0
 GLOBAL| Preferred FFT library                                             FFTW3
 GLOBAL| Preferred diagonalization lib.                                     ELPA
 GLOBAL| Run type                                                             MD
 GLOBAL| All-to-all communication in single precision                          F
 GLOBAL| FFTs using library dependent lengths                                  F
 GLOBAL| Global print level                                                  LOW
 GLOBAL| MPI I/O enabled                                                       T
 GLOBAL| Total number of message passing processes                           288
 GLOBAL| Number of threads for this process                                    1
 GLOBAL| This output is from process                                           0
 GLOBAL| CPU model name                Intel(R) Xeon(R) CPU E5-2695 v4 @ 2.10GHz
 GLOBAL| CPUID                                                              1002
 GLOBAL| Compiled for CPUID                                                 1001

 *** HINT in environment.F:802 :: The compiler target flags (x86_avx) used ***
 *** to build this binary cannot exploit all extensions of this CPU model  ***
 *** (x86_avx2). Consider compiler target flags as part of FCFLAGS and     ***
 *** CFLAGS (ARCH file).                                                   ***


 MEMORY| system memory details [Kb]
 MEMORY|                        rank 0           min           max       average
 MEMORY| MemTotal            263692180     263692172     263692180     263692178
 MEMORY| MemFree             258331024     258331024     258745044     258568288
 MEMORY| Buffers                     0             0             0             0
 MEMORY| Cached                 738040        509184        738040        588131
 MEMORY| Slab                   984252        900064        984252        940827
 MEMORY| SReclaimable           223756        210156        232968        221505
 MEMORY| MemLikelyFree       259292820     259271804     259525404     259377925



                      ************* ******** ***********   
                     ************* **********************  
                     ****     **** ****      ***********   
                     ******** ****  *******     ****       
                     *******  ****   *******   ****        
                     ****     ****       ****  ****        
                     ****     **** **********  ****        
                      ****     **** ********    ****       
                     FRONTIERS IN SIMULATION TECHNOLOGY    
                                                           
                        C.J. Mundy, S. Balasubramanian,    
                     Ken Bagchi, J. Hutter, Ari Seitsonen  
                      IFW Kuo, T. Laino, J. VandeVondele   
                                 Version 1.0               

                                                           


 EWALD| Summation is done by:                                               SPME
 EWALD| Alpha parameter [       ANGSTROM^-1]                              0.4000
 EWALD| Real Space Cutoff [          ANGSTROM]                            8.4348
 EWALD| G-space max. Miller index                         80        80        80
 EWALD| Spline interpolation order                                             6

 FORCEFIELD| WARNING: A non Critical ForceField parameter is missing! CP2K GOES!
 FORCEFIELD| Non critical parameters are:Urey-Bradley,Torsions,Impropers, Opbends and 1-4
 FORCEFIELD| All missing parameters will not contribute to the potential energy!
 FORCEFIELD| Activate the print key FF_INFO to have a list of missing parameters

 CHARGE_INFO| Total Charge of the Classical System:                    -0.825808

 SPLINE_INFO| Generating 101926 splines for NONBONDED14 interactions 
              Due to 451 different atomic kinds
  ...10192  ...20384  ...30576  ...40768  ...50960  ...61152  ...71344  ...81536  ...91728  ...101920
 SPLINE_INFO| Number of unique splines computed:            301
 SPLINE_INFO| Done

 SPLINE_INFO| Generating 101926 splines for NONBONDED interactions 
              Due to 451 different atomic kinds
  ...10192  ...20384  ...30576  ...40768  ...50960  ...61152  ...71344  ...81536  ...91728  ...101920
 SPLINE_INFO| Number of unique splines computed:            301
 SPLINE_INFO| Done

 *******************************************************************************
 *******************************************************************************
 **                                                                           **
 **     #####                         ##              ##                      **
 **    ##   ##            ##          ##              ##                      **
 **   ##     ##                       ##            ######                    **
 **   ##     ##  ##   ##  ##   #####  ##  ##   ####   ##    #####    #####    **
 **   ##     ##  ##   ##  ##  ##      ## ##   ##      ##   ##   ##  ##   ##   **
 **   ##  ## ##  ##   ##  ##  ##      ####     ###    ##   ######   ######    **
 **    ##  ###   ##   ##  ##  ##      ## ##      ##   ##   ##       ##        **
 **     #######   #####   ##   #####  ##  ##  ####    ##    #####   ##        **
 **           ##                                                    ##        **
 **                                                                           **
 **                                                ... make the atoms dance   **
 **                                                                           **
 **            Copyright (C) by CP2K developers group (2000 - 2020)           **
 **                      J. Chem. Phys. 152, 194103 (2020)                    **
 **                                                                           **
 *******************************************************************************


 TOTAL NUMBERS AND MAXIMUM NUMBERS

  Total number of            - Atomic kinds:                                   5
                             - Atoms:                                         68
                             - Shell sets:                                   340
                             - Shells:                                       445
                             - Primitive Cartesian functions:                476
                             - Cartesian basis functions:                   1137
                             - Spherical basis functions:                   1067

  Maximum angular momentum of- Orbital basis functions:                        2
                             - Local part of the GTH pseudopotential:          2
                             - Non-local part of the GTH pseudopotential:      0


 SCF PARAMETERS         Density guess:                                   RESTART
                        --------------------------------------------------------
                        max_scf:                                              30
                        max_scf_history:                                       0
                        max_diis:                                              4
                        --------------------------------------------------------
                        eps_scf:                                        1.00E-06
                        eps_scf_history:                                0.00E+00
                        eps_diis:                                       1.00E-01
                        eps_eigval:                                     1.00E-05
                        --------------------------------------------------------
                        level_shift [a.u.]:                                 0.00
                        --------------------------------------------------------
                        Outer loop SCF in use 
                        No variables optimised in outer loop
                        eps_scf                                         1.00E-06
                        max_scf                                               20
                        No outer loop optimization
                        step_size                                       5.00E-01

 *******************************************************************************
 *******************************************************************************
 **                                                                           **
 **             #######  ##     ## ##     ## ##     ##                        **
 **            ##     ## ###   ### ###   ### ###   ###                        **
 **            ##     ## #### #### #### #### #### ####                        **
 **            ##     ## ## ### ## ## ### ## ## ### ##                        **
 **            ##  ## ## ##     ## ##     ## ##     ##                        **
 **            ##    ##  ##     ## ##     ## ##     ##  T.Laino and F.Mohamed **
 **             ##### ## ##     ## ##     ## ##     ##  2005 - 2015           **
 **                                                                           **
 **                                                     Calculation Started.. **
 *******************************************************************************
 *******************************************************************************

 MD_PAR| Molecular dynamics protocol (MD input parameters)
 MD_PAR| Ensemble type                                                       NVE
 MD_PAR| Number of time steps                                                  1
 MD_PAR| Time step [fs]                                                 1.000000
 MD_PAR| Temperature [K]                                              300.000000
 MD_PAR| Temperature tolerance [K]                                      0.000000
 MD_PAR| Print MD information every                                    1 step(s)
 MD_PAR| File type   Print frequency [steps]                          File names
 MD_PAR| Coordinates          1                           CBD_PHY-PBE0-pos-1.xyz
 MD_PAR| Velocities           1                           CBD_PHY-PBE0-vel-1.xyz
 MD_PAR| Energies             1                              CBD_PHY-PBE0-1.ener
 MD_PAR| Dump                20                           CBD_PHY-PBE0-1.restart

 ROT| Rotational analysis information
 ROT| Principal axes and moments of inertia [a.u.]
 ROT|                           1                   2                   3
 ROT| Eigenvalues      1.56283164001E+13   1.56407408488E+13   1.56663418804E+13
 ROT|      x              0.901637047331     -0.018153263569      0.432112362589
 ROT|      y              0.323714777231      0.690893927917     -0.646431994389
 ROT|      z             -0.286808957117      0.722728191915      0.628812040859
 ROT| Number of rotovibrational vectors                                        6

 DOF| Calculation of degrees of freedom
 DOF| Number of atoms                                                     167923
 DOF| Number of intramolecular constraints                                     0
 DOF| Number of intermolecular constraints                                     0
 DOF| Invariants (translations + rotations)                                    3
 DOF| Degrees of freedom                                                  503766

 DOF| Restraints information
 DOF| Number of intramolecular restraints                                      0
 DOF| Number of intermolecular restraints                                      0

 MD_VEL| Velocities initialization
 MD_VEL| Initial temperature [K]                                      300.000000
 MD_VEL| COM velocity            -0.0000000000     0.0000000000     0.0000000000

  Translating the system in order to center the QM fragment in the QM box.

 Number of electrons:                                                        180
 Number of occupied orbitals:                                                 90
 Number of molecular orbitals:                                                90

 Number of orbital functions:                                               1067
 Number of independent orbital functions:                                   1067

 Extrapolation method: initial_guess


 SCF WAVEFUNCTION OPTIMIZATION

  ----------------------------------- OT ---------------------------------------
  Minimizer      : DIIS                : direct inversion
                                         in the iterative subspace
                                         using   7 DIIS vectors
                                         safer DIIS on
  Preconditioner : FULL_ALL            : diagonalization, state selective
  Precond_solver : DEFAULT
  stepsize       :    0.15000000                  energy_gap     :    0.08000000
  eps_taylor     :   0.10000E-15                  max_taylor     :             4
  ----------------------------------- OT ---------------------------------------

  Step     Update method      Time    Convergence         Total energy    Change
  ------------------------------------------------------------------------------
  Decoupling Energy:                                               0.0370647021
  Recoupling Energy:                                              -0.0063741479
     1 OT DIIS     0.15E+00    9.4     0.00129057      -255.9257316527 -2.56E+02
  Decoupling Energy:                                               0.0370576004
  Recoupling Energy:                                              -0.0063740314
     2 OT DIIS     0.15E+00    1.7     0.00057761      -255.9419521970 -1.62E-02
  Decoupling Energy:                                               0.0369596417
  Recoupling Energy:                                              -0.0063730135
     3 OT DIIS     0.15E+00    1.7     0.00038348      -255.9451217313 -3.17E-03
  Decoupling Energy:                                               0.0369795469
  Recoupling Energy:                                              -0.0063732416
     4 OT DIIS     0.15E+00    1.7     0.00009866      -255.9458275763 -7.06E-04
  Decoupling Energy:                                               0.0369716948
  Recoupling Energy:                                              -0.0063731487
     5 OT DIIS     0.15E+00    1.7     0.00003992      -255.9458779680 -5.04E-05
  Decoupling Energy:                                               0.0369737640
  Recoupling Energy:                                              -0.0063731649
     6 OT DIIS     0.15E+00    1.7     0.00001793      -255.9458894164 -1.14E-05
  Decoupling Energy:                                               0.0369741807
  Recoupling Energy:                                              -0.0063731680
     7 OT DIIS     0.15E+00    1.7     0.00000621      -255.9458922933 -2.88E-06
  Decoupling Energy:                                               0.0369727126
  Recoupling Energy:                                              -0.0063731518
     8 OT DIIS     0.15E+00    1.7     0.00000242      -255.9458926323 -3.39E-07
  Decoupling Energy:                                               0.0369731060
  Recoupling Energy:                                              -0.0063731556
     9 OT DIIS     0.15E+00    1.7     0.00000111      -255.9458926816 -4.94E-08
  Decoupling Energy:                                               0.0369728228
  Recoupling Energy:                                              -0.0063731526
    10 OT DIIS     0.15E+00    1.7     0.00000048      -255.9458926918 -1.02E-08

  *** SCF run converged in    10 steps ***


  Electronic density on regular grids:       -179.9999999999        0.0000000001
  Core density on regular grids:              180.9999999999       -0.0000000001
  Total charge density on r-space grids:        1.0000000000
  Total charge density g-space grids:           1.0000000000

  Overlap energy of the core charge distribution:               0.00001951532734
  Self energy of the core charge distribution:               -615.71576003586028
  Core Hamiltonian energy:                                    191.01363234739682
  Hartree energy:                                             248.20663852142513
  Exchange-correlation energy:                                -61.38430758347373
  Hartree-Fock Exchange energy:                               -18.10821017492050
  QM/MM Electrostatic energy:                                   0.04209471826729

  Total energy:                                              -255.94589269183788

  outer SCF iter =    1 RMS gradient =   0.48E-06 energy =       -255.9458926918
  outer SCF loop converged in   1 iterations or   10 steps

  Decoupling Energy:                                               0.0369728027
  Recoupling Energy:                                              -0.0063731523

 ENERGY| Total FORCE_EVAL ( QMMM ) energy [a.u.]:          -1088.110859623915076

 MD_INI| MD initialization
 MD_INI| Potential energy [hartree]                          -0.108811085962E+04
 MD_INI| Total kinetic energy [hartree]                       0.239300084734E+03
 MD_INI| QM kinetic energy [hartree]                          0.106639360339E+00
 MD_INI| Total temperature [K]                                        300.000000
 MD_INI| QM temperature [K]                                           330.137318
 MD_INI| Cell volume [bohr^3]                                 1.137316355424E+07
 MD_INI| Cell volume [ang^3]                                  1.685328937712E+06
 MD_INI| Cell lengths [bohr]      2.24884969E+02  2.24884969E+02  2.24884969E+02
 MD_INI| Cell lengths [ang]       1.19004000E+02  1.19004000E+02  1.19004000E+02
 MD_INI| Cell angles [deg]        9.00000000E+01  9.00000000E+01  9.00000000E+01

  Translating the system in order to center the QM fragment in the QM box.

 Number of electrons:                                                        180
 Number of occupied orbitals:                                                 90
 Number of molecular orbitals:                                                90

 Number of orbital functions:                                               1067
 Number of independent orbital functions:                                   1067

 Extrapolation method: ASPC


 SCF WAVEFUNCTION OPTIMIZATION

  ----------------------------------- OT ---------------------------------------
  Minimizer      : DIIS                : direct inversion
                                         in the iterative subspace
                                         using   7 DIIS vectors
                                         safer DIIS on
  Preconditioner : FULL_ALL            : diagonalization, state selective
  Precond_solver : DEFAULT
  stepsize       :    0.15000000                  energy_gap     :    0.08000000
  eps_taylor     :   0.10000E-15                  max_taylor     :             4
  ----------------------------------- OT ---------------------------------------

  Step     Update method      Time    Convergence         Total energy    Change
  ------------------------------------------------------------------------------
  Decoupling Energy:                                               0.0370014666
  Recoupling Energy:                                              -0.0063734172
     1 OT DIIS     0.15E+00    5.7     0.00075899      -255.7182133485 -2.56E+02
  Decoupling Energy:                                               0.0370082380
  Recoupling Energy:                                              -0.0063735355
     2 OT DIIS     0.15E+00    1.6     0.00032685      -255.7237311812 -5.52E-03
  Decoupling Energy:                                               0.0370087415
  Recoupling Energy:                                              -0.0063735590
     3 OT DIIS     0.15E+00    1.6     0.00019068      -255.7247685043 -1.04E-03
  Decoupling Energy:                                               0.0370199884
  Recoupling Energy:                                              -0.0063736817
     4 OT DIIS     0.15E+00    1.6     0.00006054      -255.7249609373 -1.92E-04
  Decoupling Energy:                                               0.0370216764
  Recoupling Energy:                                              -0.0063737045
     5 OT DIIS     0.15E+00    1.6     0.00001954      -255.7249775019 -1.66E-05
  Decoupling Energy:                                               0.0370210006
  Recoupling Energy:                                              -0.0063736984
     6 OT DIIS     0.15E+00    1.6     0.00000817      -255.7249797602 -2.26E-06
  Decoupling Energy:                                               0.0370221931
  Recoupling Energy:                                              -0.0063737124
     7 OT DIIS     0.15E+00    1.6     0.00000308      -255.7249802223 -4.62E-07
  Decoupling Energy:                                               0.0370222384
  Recoupling Energy:                                              -0.0063737132
     8 OT DIIS     0.15E+00    1.6     0.00000136      -255.7249802995 -7.72E-08
  Decoupling Energy:                                               0.0370224660
  Recoupling Energy:                                              -0.0063737159
     9 OT DIIS     0.15E+00    1.6     0.00000058      -255.7249803153 -1.57E-08

  *** SCF run converged in     9 steps ***


  Electronic density on regular grids:       -180.0000000000        0.0000000000
  Core density on regular grids:              180.9999999999       -0.0000000001
  Total charge density on r-space grids:        0.9999999999
  Total charge density g-space grids:           0.9999999999

  Overlap energy of the core charge distribution:               0.00002422740857
  Self energy of the core charge distribution:               -615.71576003586028
  Core Hamiltonian energy:                                    191.21094889475842
  Hartree energy:                                             248.07774961241361
  Exchange-correlation energy:                                -61.42683515945729
  Hartree-Fock Exchange energy:                               -18.12283153590638
  QM/MM Electrostatic energy:                                   0.25172368138120

  Total energy:                                              -255.72498031526220

  outer SCF iter =    1 RMS gradient =   0.58E-06 energy =       -255.7249803153
  outer SCF loop converged in   1 iterations or    9 steps

  Decoupling Energy:                                               0.0370224946
  Recoupling Energy:                                              -0.0063737164

 ENERGY| Total FORCE_EVAL ( QMMM ) energy [a.u.]:          -1059.962356490392267

 MD| ***************************************************************************
 MD| Step number                                                               1
 MD| Time [fs]                                                          1.000000
 MD| Conserved quantity [hartree]                            -0.841461427284E+03
 MD| ---------------------------------------------------------------------------
 MD|                                          Instantaneous             Averages
 MD| CPU time per MD step [s]                    156.284197           156.284197
 MD| Energy drift per atom [K]           0.138202488790E+02   0.000000000000E+00
 MD| Potential energy [hartree]         -0.105996235649E+04  -0.105996235649E+04
 MD| Total kinetic energy [hartree]      0.218500929206E+03   0.218500929206E+03
 MD| QM kinetic energy [hartree]         0.121347080431E+00   0.121347080431E+00
 MD| Total temperature [K]                       273.925013           273.925013
 MD| QM temperature [K]                          375.669918           375.669918
 MD| ***************************************************************************

 -------------------------------------------------------------------------------
 -                                                                             -
 -                                DBCSR STATISTICS                             -
 -                                                                             -
 -------------------------------------------------------------------------------
 COUNTER                                    TOTAL       BLAS       SMM       ACC
 flops     9 x    26 x    26               803088       0.0%    100.0%      0.0%
 flops    22 x    26 x    26              2082080       0.0%    100.0%      0.0%
 flops     9 x    32 x    32              2433024       0.0%    100.0%      0.0%
 flops    26 x    26 x    26              5167344       0.0%    100.0%      0.0%
 flops    22 x    32 x    32              6307840       0.0%    100.0%      0.0%
 flops    98 x    26 x    26             12587120       0.0%    100.0%      0.0%
 flops    26 x    26 x    32             12719616       0.0%    100.0%      0.0%
 flops    26 x    32 x    26             12719616       0.0%    100.0%      0.0%
 flops    32 x    26 x    26             12719616       0.0%    100.0%      0.0%
 flops    26 x    26 x    31             13076544       0.0%    100.0%      0.0%
 flops    26 x    26 x    40             21091200       0.0%    100.0%      0.0%
 flops    88 x    26 x    26             22605440       0.0%    100.0%      0.0%
 flops    89 x    26 x    26             22862320       0.0%    100.0%      0.0%
 flops    98 x    26 x    31             26539968       0.0%    100.0%      0.0%
 flops    98 x    26 x    32             30983680       0.0%    100.0%      0.0%
 flops    98 x    32 x    26             30983680       0.0%    100.0%      0.0%
 flops    32 x    32 x    26             31309824       0.0%    100.0%      0.0%
 flops    26 x    32 x    32             31309824       0.0%    100.0%      0.0%
 flops    32 x    26 x    32             31309824       0.0%    100.0%      0.0%
 flops    26 x    32 x    31             32188416       0.0%    100.0%      0.0%
 flops    32 x    26 x    31             32188416       0.0%    100.0%      0.0%
 flops    93 x    26 x    26             35834760       0.0%    100.0%      0.0%
 flops    26 x    26 x    53             39124176       0.0%    100.0%      0.0%
 flops    98 x    26 x    40             42806400       0.0%    100.0%      0.0%
 flops    84 x    26 x    26             43155840       0.0%    100.0%      0.0%
 flops    88 x    26 x    31             47663616       0.0%    100.0%      0.0%
 flops    89 x    26 x    31             48205248       0.0%    100.0%      0.0%
 flops    26 x    32 x    40             51916800       0.0%    100.0%      0.0%
 flops    32 x    26 x    40             51916800       0.0%    100.0%      0.0%
 flops     9 x     9 x    26             54347436       0.0%    100.0%      0.0%
 flops    88 x    32 x    26             55644160       0.0%    100.0%      0.0%
 flops    88 x    26 x    32             55644160       0.0%    100.0%      0.0%
 flops    89 x    26 x    32             56276480       0.0%    100.0%      0.0%
 flops    89 x    32 x    26             56276480       0.0%    100.0%      0.0%
 flops    98 x    32 x    31             65329152       0.0%    100.0%      0.0%
 flops    93 x    26 x    31             75557664       0.0%    100.0%      0.0%
 flops    98 x    32 x    32             76267520       0.0%    100.0%      0.0%
 flops    88 x    26 x    40             76876800       0.0%    100.0%      0.0%
 flops    32 x    32 x    32             77070336       0.0%    100.0%      0.0%
 flops    89 x    26 x    40             77750400       0.0%    100.0%      0.0%
 flops    32 x    32 x    31             79233024       0.0%    100.0%      0.0%
 flops    98 x    26 x    53             79405872       0.0%    100.0%      0.0%
 flops    93 x    26 x    32             88208640       0.0%    100.0%      0.0%
 flops    93 x    32 x    26             88208640       0.0%    100.0%      0.0%
 flops    84 x    26 x    31             90994176       0.0%    100.0%      0.0%
 flops    26 x    32 x    53             96305664       0.0%    100.0%      0.0%
 flops    32 x    26 x    53             96305664       0.0%    100.0%      0.0%
 flops    98 x    32 x    40            105369600       0.0%    100.0%      0.0%
 flops    84 x    26 x    32            106229760       0.0%    100.0%      0.0%
 flops    84 x    32 x    26            106229760       0.0%    100.0%      0.0%
 flops    88 x    32 x    31            117325824       0.0%    100.0%      0.0%
 flops    89 x    32 x    31            118659072       0.0%    100.0%      0.0%
 flops    93 x    26 x    40            121867200       0.0%    100.0%      0.0%
 flops    32 x    32 x    40            127795200       0.0%    100.0%      0.0%
 flops     9 x     9 x    32            133778304       0.0%    100.0%      0.0%
 flops    22 x     9 x    26            136638216       0.0%    100.0%      0.0%
 flops     9 x    22 x    26            136875024       0.0%    100.0%      0.0%
 flops    88 x    32 x    32            136970240       0.0%    100.0%      0.0%
 flops    89 x    32 x    32            138526720       0.0%    100.0%      0.0%
 flops    88 x    26 x    53            142606464       0.0%    100.0%      0.0%
 flops    89 x    26 x    53            144226992       0.0%    100.0%      0.0%
 flops    84 x    26 x    40            146764800       0.0%    100.0%      0.0%
 flops    93 x    32 x    31            185988096       0.0%    100.0%      0.0%
 flops    88 x    32 x    40            189235200       0.0%    100.0%      0.0%
 flops    89 x    32 x    40            191385600       0.0%    100.0%      0.0%
 flops    98 x    32 x    53            195460608       0.0%    100.0%      0.0%
 flops    93 x    32 x    32            217128960       0.0%    100.0%      0.0%
 flops    84 x    32 x    31            223985664       0.0%    100.0%      0.0%
 flops    93 x    26 x    53            226063656       0.0%    100.0%      0.0%
 flops    32 x    32 x    53            237060096       0.0%    100.0%      0.0%
 flops     9 x    26 x     9            238517136       0.0%    100.0%      0.0%
 flops    84 x    32 x    32            261488640       0.0%    100.0%      0.0%
 flops    84 x    26 x    53            272248704       0.0%    100.0%      0.0%
 flops    93 x    32 x    40            299980800       0.0%    100.0%      0.0%
 flops    22 x     9 x    32            336340224       0.0%    100.0%      0.0%
 flops     9 x    22 x    32            336923136       0.0%    100.0%      0.0%
 flops    88 x    32 x    53            351031296       0.0%    100.0%      0.0%
 flops    89 x    32 x    53            355020288       0.0%    100.0%      0.0%
 flops    84 x    32 x    40            361267200       0.0%    100.0%      0.0%
 flops    22 x    22 x    26            364684320       0.0%    100.0%      0.0%
 flops    93 x    32 x    53            556464384       0.0%    100.0%      0.0%
 flops     9 x    32 x     9            587119104       0.0%    100.0%      0.0%
 flops     9 x    26 x    22            618377760       0.0%    100.0%      0.0%
 flops    22 x    26 x     9            618377760       0.0%    100.0%      0.0%
 flops    84 x    32 x    53            670150656       0.0%    100.0%      0.0%
 flops    22 x    22 x    32            897684480       0.0%    100.0%      0.0%
 flops    22 x    32 x     9           1522160640       0.0%    100.0%      0.0%
 flops     9 x    32 x    22           1522160640       0.0%    100.0%      0.0%
 flops    22 x    26 x    22           1603201600       0.0%    100.0%      0.0%
 flops    22 x    32 x    22           3946342400       0.0%    100.0%      0.0%
 flops inhomo. stacks                  3955970880     100.0%      0.0%      0.0%
 flops total                        25.361997E+09      15.6%     84.4%      0.0%
 flops max/rank                    845.150928E+06      19.9%     80.1%      0.0%
 matmuls inhomo. stacks                     17712     100.0%      0.0%      0.0%
 matmuls total                             950991       1.9%     98.1%      0.0%
 number of processed stacks                271014       6.5%     93.5%      0.0%
 average stack size                                     1.0       3.7       0.0
 marketing flops                    27.250389E+09
 -------------------------------------------------------------------------------
 # multiplications                            441
 max memory usage/rank               1.626800E+09
 # max total images/rank                        2
 # max 3D layers                                1
 # MPI messages exchanged                 5715360
 MPI messages size (bytes):
  total size                        25.229812E+09
  min size                           0.000000E+00
  max size                          41.552000E+03
  average size                       4.414387E+03
 MPI breakdown and total messages size (bytes):
             size <=      128             4655283                        0
       128 < size <=     8192               98685                721151904
      8192 < size <=    32768              667360              13746448272
     32768 < size <=   131072              294032              10762211152
    131072 < size <=  4194304                   0                        0
   4194304 < size <= 16777216                   0                        0
  16777216 < size                               0                        0
 -------------------------------------------------------------------------------

 *** WARNING in dbcsr_mm.F:294 :: Using a non-square number of MPI ranks ***
 *** might lead to poor performance. Used ranks: 288 Suggested: 289 576  ***

 -------------------------------------------------------------------------------
 -                                                                             -
 -                      DBCSR MESSAGE PASSING PERFORMANCE                      -
 -                                                                             -
 -------------------------------------------------------------------------------
 ROUTINE             CALLS      AVE VOLUME [Bytes]
 MP_Bcast               91                     12.
 MP_Allreduce         2528                      9.
 MP_Alltoall          1645                 100995.
 MP_ISend            41794                   3704.
 MP_IRecv            41638                   3545.
 -------------------------------------------------------------------------------

 -------------------------------------------------------------------------------
 -                                                                             -
 -                                GRID STATISTICS                              -
 -                                                                             -
 -------------------------------------------------------------------------------
 LP    KERNEL             BACKEND                              COUNT     PERCENT
 2     collocate ortho    REF                                 375167      18.51%
 2     integrate ortho    REF                                 369367      18.22%
 1     collocate ortho    REF                                 314273      15.51%
 1     integrate ortho    REF                                 293244      14.47%
 3     integrate ortho    REF                                 186579       9.21%
 3     collocate ortho    REF                                 166727       8.23%
 0     collocate ortho    REF                                  93461       4.61%
 0     integrate ortho    REF                                  84559       4.17%
 0     collocate general  REF                                  39168       1.93%
 1     integrate general  REF                                  39168       1.93%
 4     integrate ortho    REF                                  38185       1.88%
 4     collocate ortho    REF                                  24654       1.22%
 5     integrate ortho    REF                                   2348       0.12%
 -------------------------------------------------------------------------------

 MEMORY| Estimated peak process memory [MiB]                                1634

 -------------------------------------------------------------------------------
 -                                                                             -
 -                         MESSAGE PASSING PERFORMANCE                         -
 -                                                                             -
 -------------------------------------------------------------------------------

 ROUTINE             CALLS      AVE VOLUME [Bytes]
 MP_Group                8
 MP_Bcast             6732               10895125.
 MP_Allreduce         1053                1111237.
 MP_Sync               134
 MP_Alltoall           441                3998037.
 MP_ISendRecv        39032                  28882.
 MP_Wait             44233
 MP_comm_split           4
 MP_ISend             4639                 123793.
 MP_IRecv             4689                 122135.
 MP_Recv                44                  34144.
 -------------------------------------------------------------------------------


 -------------------------------------------------------------------------------
 -                                                                             -
 -                           R E F E R E N C E S                               -
 -                                                                             -
 -------------------------------------------------------------------------------
 
 CP2K version 8.1, the CP2K developers group (2020).
 CP2K is freely available from https://www.cp2k.org/ .

 Kuehne,Thomas D.; Iannuzzi,Marcella; Del Ben,Mauro;
 Rybkin,Vladimir V.; Seewald,Patrick; Stein,Frederick; Laino,Teodoro;
 Khaliullin,Rustam Z.; Schuett,Ole; Schiffmann,Florian; Golze,Dorothea;
 Wilhelm,Jan; Chulkov,Sergey; Bani-Hashemian,Mohammad Hossein;
 Weber,Valery; Borstnik,Urban; Taillefumier,Mathieu;
 Jakobovits,Alice Shoshana; Lazzaro,Alfio; Pabst,Hans; Mueller,Tiziano;
 Schade,Robert; Guidon,Manuel; Andermatt,Samuel; Holmberg,Nico;
 Schenter,Gregory K.; Hehn,Anna; Bussy,Augustin; Belleflamme,Fabian;
 Tabacchi,Gloria; Gloess,Andreas; Lass,Michael; Bethune,Iain;
 Mundy,Christopher J.; Plessl,Christian; Watkins,Matt;
 VandeVondele,Joost; Krack,Matthias; Hutter,Juerg. 
 The Journal of Chemical Physics, 152 (19), (2020). 
 CP2K: An electronic structure and molecular dynamics software package -
 Quickstep: Efficient and accurate electronic structure calculations.
 https://doi.org/10.1063/5.0007045

 Schuett, Ole; Messmer, Peter; Hutter, Juerg; VandeVondele, Joost. 
 Electronic Structure Calculations on Graphics Processing Units, John
 Wiley & Sons, Ltd, 173-190 (2016). 
 GPU-Accelerated Sparse Matrix-Matrix Multiplication for
 Linear Scaling Density Functional Theory.
 https://doi.org/10.1002/9781118670712.ch8

 Borstnik, U; VandeVondele, J; Weber, V; Hutter, J. 
 PARALLEL COMPUTING, 40 (5-6), 47-58 (2014). 
 Sparse matrix multiplication: The distributed block-compressed sparse
 row library.
 https://doi.org/10.1016/j.parco.2014.03.012

 Hutter, J; Iannuzzi, M; Schiffmann, F; VandeVondele, J. 
 WIREs Comput Mol Sci., 4 (1), 15-25 (2014). 
 CP2K: atomistic simulations of condensed matter systems.
 https://doi.org/10.1002/wcms.1159

 Marek, A; Blum, V; Johanni, R; Havu, V; Lang, B; Auckenthaler, T;
 Heinecke, A; Bungartz, H; Lederer, H. 
 Journal of Physics: Condensed Matter, 26 (21), (2014). 
 The ELPA library: scalable parallel eigenvalue solutions for
 electronic structure
 theory and computational science.
 https://doi.org/10.1088/0953-8984/26/21/213201

 Guidon, M; Hutter, J; VandeVondele, J. 
 JOURNAL OF CHEMICAL THEORY AND COMPUTATION, 5 (11), 3010-3021 (2009). 
 Robust Periodic Hartree-Fock Exchange for Large-Scale Simulations Using
 Gaussian Basis Sets.
 https://doi.org/10.1021/ct900494g

 Guidon, M; Schiffmann, F; Hutter, J; VandeVondele, J. 
 JOURNAL OF CHEMICAL PHYSICS, 128 (21), 214104 (2008). 
 Ab initio molecular dynamics using hybrid density functionals.
 https://doi.org/10.1063/1.2931945

 Kuhne, TD; Krack, M; Mohamed, FR; Parrinello, M. 
 PHYSICAL REVIEW LETTERS, 98 (6), 066401 (2007). 
 Efficient and accurate Car-Parrinello-like approach to
 Born-Oppenheimer molecular dynamics.
 https://doi.org/10.1103/PhysRevLett.98.066401

 Laino, T; Mohamed, F; Laio, A; Parrinello, M. 
 JOURNAL OF CHEMICAL THEORY AND COMPUTATION, 2 (5), 1370-1378 (2006). 
 An efficient linear-scaling electrostatic coupling for treating
 periodic boundary conditions in QM/MM simulations.
 https://doi.org/10.1021/ct6001169

 Laino, T; Mohamed, F; Laio, A; Parrinello, M. 
 JOURNAL OF CHEMICAL THEORY AND COMPUTATION, 1 (6), 1176-1184 (2005). 
 An efficient real space multigrid QM/MM electrostatic coupling.
 https://doi.org/10.1021/ct050123f

 Krack, M. 
 THEORETICAL CHEMISTRY ACCOUNTS, 114 (1-3), 145-152 (2005). 
 Pseudopotentials for H to Kr optimized for gradient-corrected
 exchange-correlation functionals.
 https://doi.org/10.1007/s00214-005-0655-y

 VandeVondele, J; Krack, M; Mohamed, F; Parrinello, M; Chassaing, T;
 Hutter, J. COMPUTER PHYSICS COMMUNICATIONS, 167 (2), 103-128 (2005). 
 QUICKSTEP: Fast and accurate density functional calculations using a
 mixed Gaussian and plane waves approach.
 https://doi.org/10.1016/j.cpc.2004.12.014

 Frigo, M; Johnson, SG. 
 PROCEEDINGS OF THE IEEE, 93 (2), 216-231 (2005). 
 The design and implementation of FFTW3.
 https://doi.org/10.1109/JPROC.2004.840301

 Kolafa, J. 
 JOURNAL OF COMPUTATIONAL CHEMISTRY, 25 (3), 335-342 (2004). 
 Time-reversible always stable predictor-corrector method for molecular dynamics of polarizable molecules.
 https://doi.org/10.1002/jcc.10385

 VandeVondele, J; Hutter, J. 
 JOURNAL OF CHEMICAL PHYSICS, 118 (10), 4365-4369 (2003). 
 An efficient orbital transformation method for electronic structure
 calculations.
 https://doi.org/10.1063/1.1543154

 Hartwigsen, C; Goedecker, S; Hutter, J. 
 PHYSICAL REVIEW B, 58 (7), 3641-3662 (1998). 
 Relativistic separable dual-space Gaussian pseudopotentials from H to Rn.
 https://doi.org/10.1103/PhysRevB.58.3641

 Lippert, G; Hutter, J; Parrinello, M. 
 MOLECULAR PHYSICS, 92 (3), 477-487 (1997). 
 A hybrid Gaussian and plane wave density functional scheme.
 https://doi.org/10.1080/002689797170220

 Perdew, JP; Burke, K; Ernzerhof, M. 
 PHYSICAL REVIEW LETTERS, 77 (18), 3865-3868 (1996). 
 Generalized gradient approximation made simple.
 https://doi.org/10.1103/PhysRevLett.77.3865

 Goedecker, S; Teter, M; Hutter, J. 
 PHYSICAL REVIEW B, 54 (3), 1703-1710 (1996). 
 Separable dual-space Gaussian pseudopotentials.
 https://doi.org/10.1103/PhysRevB.54.1703

 ESSMANN, U; PERERA, L; BERKOWITZ, ML; DARDEN, T; LEE, H; PEDERSEN, LG. 
 JOURNAL OF CHEMICAL PHYSICS, 103 (19), 8577-8593 (1995). 
 A SMOOTH PARTICLE MESH EWALD METHOD.
 https://doi.org/10.1063/1.470117

 BLOCHL, PE. 
 JOURNAL OF CHEMICAL PHYSICS, 103 (17), 7422-7428 (1995). 
 ELECTROSTATIC DECOUPLING OF PERIODIC IMAGES OF PLANE-WAVE-EXPANDED
 DENSITIES AND DERIVED ATOMIC POINT CHARGES.
 https://doi.org/10.1063/1.470314


 -------------------------------------------------------------------------------
 -                                                                             -
 -                                T I M I N G                                  -
 -                                                                             -
 -------------------------------------------------------------------------------
 SUBROUTINE                       CALLS  ASD         SELF TIME        TOTAL TIME
                                MAXIMUM       AVERAGE  MAXIMUM  AVERAGE  MAXIMUM
 CP2K                                 1  1.0    0.551    0.576  222.028  222.036
 qs_mol_dyn_low                       1  2.0    0.018    0.028  157.566  159.610
 qs_forces                            2  3.5    0.001    0.001   94.335   94.345
 rebuild_ks_matrix                   21  8.2    0.000    0.000   69.278   69.289
 qs_ks_build_kohn_sham_matrix        21  9.2    0.003    0.004   69.278   69.288
 velocity_verlet                      1  3.0    0.015    0.016   66.445   66.449
 qmmm_env_create                      1  2.0   16.542   18.002   61.816   61.822
 qs_energies                          2  4.5    0.000    0.000   60.718   60.728
 hfx_ks_matrix                       21 10.2    0.001    0.001   54.914   54.914
 scf_env_do_scf                       2  5.5    0.000    0.000   43.732   43.732
 fist_init                            1  3.0    0.000    0.000   39.694   39.695
 qs_ks_update_qs_env                 21  7.5    0.000    0.000   35.706   35.716
 qs_ks_update_qs_env_forces           2  4.5    0.000    0.000   33.574   33.575
 qmmm_forces                          2  3.5    0.025    0.027   33.450   33.454
 qmmm_forces_with_gaussian            2  4.5    0.011    0.019   32.620   33.212
 derivatives_four_center              2  8.5    0.018    0.393   30.888   30.888
 derivatives_four_center_main         2  9.5    0.001    0.001   30.336   30.336
 derivatives_four_center_bin        151 10.5   27.976   30.316   27.976   30.316
 scf_env_do_scf_inner_loop           19  6.5    0.001    0.002   28.752   28.759
 qmmm_el_coupling                     2  3.5    0.000    0.000   25.256   25.482
 qmmm_elec_with_gaussian              2  4.5    0.005    0.008   25.255   25.481
 pw_transfer                        442 11.7    0.027    0.036   24.035   25.408
 fft_wrap_pw1pw2                    369 12.9    0.004    0.005   23.922   25.300
 fft_wrap_pw1pw2_200                235 14.1    0.358    0.441   23.106   24.536
 fft3d_ps                           369 14.9    2.566    3.950   22.950   24.283
 integrate_four_center               21 11.2    0.097    0.476   24.024   24.024
 force_field_control                  1  4.0    0.000    0.000   23.116   23.914
 mp_alltoall_z22v                   369 16.9   19.930   21.341   19.930   21.341
 integrate_four_center_main          21 12.2    0.005    0.006   18.747   19.373
 integrate_four_center_bin         1386 13.2   18.742   19.368   18.742   19.368
 yz_to_x                            172 15.4    0.144    0.166   18.000   19.320
 rdparm_amber_8                       2  6.5   14.407   15.508   18.395   18.780
 pw_restrict_s3                       6  5.5    7.137    7.497   17.589   17.872
 topology_control                     1  4.0    0.000    0.000   15.743   17.033
 qs_energies_init_hamiltonians        2  5.5    0.000    0.000   16.213   16.223
 qs_env_update_s_mstruct              2  6.5    0.000    0.000   16.200   16.208
 calculate_rho_core                   2  7.5    0.002    0.008   15.390   16.160
 init_scf_loop                        2  6.5    0.000    0.000   14.971   14.973
 force_field_pack                     1  5.0    0.022    0.025   13.821   14.556
 qmmm_elec_with_gaussian:spline       2  5.5    0.000    0.000   13.609   13.833
 pw_prolongate_s3                     6  6.5    5.333    5.581   13.609   13.833
 qmmm_force_with_gaussian_low         2  5.5    0.000    0.000   12.158   12.399
 pw_integral_ab                     911  7.0   11.364   11.852   11.604   12.122
 force_field_pack_splines             2  6.0    0.025    0.030   10.273   10.617
 qmmm_forces_gaussian_low_R           2  6.5    0.000    0.000   10.341   10.466
 qmmm_forces_with_gaussian_LG         2  7.5   10.341   10.466   10.341   10.466
 get_nonbond_storage                  2  7.0    0.298    0.318    9.903   10.248
 set_potparm_index                  602  8.0    0.442    0.458    9.605    9.958
 connectivity_control                 2  4.0    0.000    0.000    9.498    9.631
 init_genpot                        604  9.0    9.189    9.531    9.189    9.531
 read_force_field_amber               1  5.0    0.012    0.015    9.160    9.522
 read_connectivity_amber              1  6.0    0.000    0.000    9.247    9.362
 mp_sum_dm3                          13  5.2    8.846    9.281    8.846    9.281
 rs_pw_transfer                     180 11.5    0.003    0.004    8.078    8.526
 qmmm_elec_with_gaussian_low          2  5.5    0.000    0.000    8.048    8.320
 qs_rho_update_rho                   21  7.5    0.000    0.000    7.388    7.396
 calculate_rho_elec                  21  8.5    0.012    0.021    7.388    7.396
 qmmm_elec_gaussian_low_R             2  6.5    0.000    0.000    7.041    7.255
 qmmm_elec_with_gaussian_LG           2  7.5    7.041    7.255    7.041    7.255
 density_rs2pw                       21  9.5    0.001    0.002    6.475    6.834
 qs_vxc_create                       21 10.2    0.000    0.001    6.643    6.646
 xc_vxc_pw_create                    21 11.2    0.052    0.066    6.643    6.645
 sum_up_and_integrate                21 10.2    0.012    0.022    6.330    6.346
 integrate_v_rspace                  21 11.2    0.001    0.001    6.317    6.334
 mp_waitany                        4791 13.5    4.600    5.397    4.600    5.397
 topology_coordinate_pack             2  4.0    0.000    0.001    4.064    5.321
 topology_coordinate_pack_11          2  5.0    3.749    5.000    3.749    5.000
 rs_pw_transfer_RS2PW_200            23 11.3    0.491    0.637    3.198    4.753
 -------------------------------------------------------------------------------

 The number of warnings for this run is : 1
 
 -------------------------------------------------------------------------------
  **** **** ******  **  PROGRAM ENDED AT                 2021-04-19 14:07:35.630
 ***** ** ***  *** **   PROGRAM RAN ON                                    r1i1n8
 **    ****   ******    PROGRAM RAN BY                                    hollyj
 ***** **    ** ** **   PROGRAM PROCESS ID                                 17803
  **** **  *******  **  PROGRAM STOPPED IN /lustre/home/w68/hollyj/CP2K/Cirrus/C
                                           PU/cp2kMD/CBD_PHY-PBE0/1STEPS/8NODES/
                                           36CPN/1THREADS
