 DBCSR| CPU Multiplication driver                                           XSMM
 DBCSR| Multrec recursion limit                                              512
 DBCSR| Multiplication stack size                                          30000
 DBCSR| Maximum elements for images                                    UNLIMITED
 DBCSR| Multiplicative factor virtual images                                   1
 DBCSR| Use multiplication densification                                       F
 DBCSR| Multiplication size stacks                                             3
 DBCSR| Use memory pool for CPU allocation                                     F
 DBCSR| Number of 3D layers                                               SINGLE
 DBCSR| Use MPI memory allocation                                              F
 DBCSR| Use RMA algorithm                                                      F
 DBCSR| Use Communication thread                                               T
 DBCSR| Communication thread load                                             53
 DBCSR| MPI: My node id                                                        0
 DBCSR| MPI: Number of nodes                                                   8
 DBCSR| OMP: Current number of threads                                        10
 DBCSR| OMP: Max number of threads                                            10
 DBCSR| ACC: Number of devices/node                                            4
 DBCSR| ACC: Number of priority stack-buffers                                 40
 DBCSR| ACC: Number of posterior stack-buffers                                80
 DBCSR| ACC: Number of priority streams                                        4
 DBCSR| ACC: Number of posterior streams                                       4
 DBCSR| ACC: Avoid driver after busy                                           F
 DBCSR| ACC: Process inhomogeneous stacks                                      T
 DBCSR| ACC: Min. flop for processing                                          0
 DBCSR| ACC: Min. flop for sorting                                          4000
 DBCSR| ACC: Number of binning bins                                         4096
 DBCSR| ACC: Size of binning bins                                             16
 DBCSR| Split modifier for TAS multiplication algorithm                  1.0E+00


  **** **** ******  **  PROGRAM STARTED AT               2021-07-26 12:22:33.742
 ***** ** ***  *** **   PROGRAM STARTED ON                                r2i5n3
 **    ****   ******    PROGRAM STARTED BY                                hollyj
 ***** **    ** ** **   PROGRAM PROCESS ID                                 20647
  **** **  *******  **  PROGRAM STARTED IN /lustre/home/w68/hollyj/CP2K/Cirrus/G
                                           PU/cp2kMD/CBD_PHY-PBE0/6STEPS/2NODES/
                                           36CPN/10THREADS

 CP2K| version string:                                          CP2K version 8.2
 CP2K| source code revision number:                                  git:310b7ab
 CP2K| cp2kflags: omp libint fftw3 libxc elpa parallel mpi3 scalapack cosma pw_c
 CP2K|            uda xsmm cuda_profiling dbcsr_acc spglib mkl grid_cuda
 CP2K| is freely available from                            https://www.cp2k.org/
 CP2K| Program compiled at                          Thu Jul 22 18:07:58 BST 2021
 CP2K| Program compiled on                                                r2i5n7
 CP2K| Program compiled for                                           Cirrus-gcc
 CP2K| Data directory path       /lustre/home/w68/hollyj/CP2K/v8.2/cp2k-8.2/data
 CP2K| Input file name                                          CBD_PHY-cp2k.inp

 GLOBAL| Force Environment number                                              1
 GLOBAL| Basis set file name                                           HFX_BASIS
 GLOBAL| Potential file name                                           POTENTIAL
 GLOBAL| MM Potential file name                                     MM_POTENTIAL
 GLOBAL| Coordinate file name                                        CBD_PHY.pdb
 GLOBAL| Method name                                                        CP2K
 GLOBAL| Project name                                               CBD_PHY-PBE0
 GLOBAL| Run type                                                             MD
 GLOBAL| FFT library                                                       FFTW3
 GLOBAL| Diagonalization library                                            ELPA
 GLOBAL| Minimum number of eigenvectors for ELPA usage                        16
 GLOBAL| Orthonormality check for eigenvectors                          DISABLED
 GLOBAL| Matrix multiplication library                                     COSMA
 GLOBAL| All-to-all communication in single precision                          F
 GLOBAL| FFTs using library dependent lengths                                  F
 GLOBAL| Grid backend                                                       AUTO
 GLOBAL| Global print level                                                  LOW
 GLOBAL| MPI I/O enabled                                                       T
 GLOBAL| Total number of message passing processes                             8
 GLOBAL| Number of threads for this process                                   10
 GLOBAL| This output is from process                                           0
 GLOBAL| CPU model name                 Intel(R) Xeon(R) Gold 6248 CPU @ 2.50GHz
 GLOBAL| CPUID                                                              1003

 MEMORY| system memory details [Kb]
 MEMORY|                        rank 0           min           max       average
 MEMORY| MemTotal            394535408     394535408     394535408     394535408
 MEMORY| MemFree             387195544     387195544     387211180     387203384
 MEMORY| Buffers                     0             0             0             0
 MEMORY| Cached                1155472        944604       1155472       1050038
 MEMORY| Slab                  1044040       1029832       1044040       1036936
 MEMORY| SReclaimable           192052        161352        192052        176702
 MEMORY| MemLikelyFree       388543068     388317136     388543128     388430124



                      ************* ******** ***********   
                     ************* **********************  
                     ****     **** ****      ***********   
                     ******** ****  *******     ****       
                     *******  ****   *******   ****        
                     ****     ****       ****  ****        
                     ****     **** **********  ****        
                      ****     **** ********    ****       
                     FRONTIERS IN SIMULATION TECHNOLOGY    
                                                           
                        C.J. Mundy, S. Balasubramanian,    
                     Ken Bagchi, J. Hutter, Ari Seitsonen  
                      IFW Kuo, T. Laino, J. VandeVondele   
                                 Version 1.0               

                                                           


 EWALD| Summation is done by:                                               SPME
 EWALD| Alpha parameter [       ANGSTROM^-1]                              0.4000
 EWALD| Real Space Cutoff [          ANGSTROM]                            8.4348
 EWALD| G-space max. Miller index                         80        80        80
 EWALD| Spline interpolation order                                             6

 FORCEFIELD| WARNING: A non Critical ForceField parameter is missing! CP2K GOES!
 FORCEFIELD| Non critical parameters are:Urey-Bradley,Torsions,Impropers, Opbends and 1-4
 FORCEFIELD| All missing parameters will not contribute to the potential energy!
 FORCEFIELD| Activate the print key FF_INFO to have a list of missing parameters

 CHARGE_INFO| Total Charge of the Classical System:                    -0.825808

 SPLINE_INFO| Generating 101926 splines for NONBONDED14 interactions 
              Due to 451 different atomic kinds
  ...10192  ...20384  ...30576  ...40768  ...50960  ...61152  ...71344  ...81536  ...91728  ...101920
 SPLINE_INFO| Number of unique splines computed:            301
 SPLINE_INFO| Done

 SPLINE_INFO| Generating 101926 splines for NONBONDED interactions 
              Due to 451 different atomic kinds
  ...10192  ...20384  ...30576  ...40768  ...50960  ...61152  ...71344  ...81536  ...91728  ...101920
 SPLINE_INFO| Number of unique splines computed:            301
 SPLINE_INFO| Done

 *******************************************************************************
 *******************************************************************************
 **                                                                           **
 **     #####                         ##              ##                      **
 **    ##   ##            ##          ##              ##                      **
 **   ##     ##                       ##            ######                    **
 **   ##     ##  ##   ##  ##   #####  ##  ##   ####   ##    #####    #####    **
 **   ##     ##  ##   ##  ##  ##      ## ##   ##      ##   ##   ##  ##   ##   **
 **   ##  ## ##  ##   ##  ##  ##      ####     ###    ##   ######   ######    **
 **    ##  ###   ##   ##  ##  ##      ## ##      ##   ##   ##       ##        **
 **     #######   #####   ##   #####  ##  ##  ####    ##    #####   ##        **
 **           ##                                                    ##        **
 **                                                                           **
 **                                                ... make the atoms dance   **
 **                                                                           **
 **            Copyright (C) by CP2K developers group (2000-2021)             **
 **                      J. Chem. Phys. 152, 194103 (2020)                    **
 **                                                                           **
 *******************************************************************************


 TOTAL NUMBERS AND MAXIMUM NUMBERS

  Total number of            - Atomic kinds:                                   5
                             - Atoms:                                         68
                             - Shell sets:                                   340
                             - Shells:                                       445
                             - Primitive Cartesian functions:                476
                             - Cartesian basis functions:                   1137
                             - Spherical basis functions:                   1067

  Maximum angular momentum of- Orbital basis functions:                        2
                             - Local part of the GTH pseudopotential:          2
                             - Non-local part of the GTH pseudopotential:      0


 SCF PARAMETERS         Density guess:                                   RESTART
                        --------------------------------------------------------
                        max_scf:                                              30
                        max_scf_history:                                       0
                        max_diis:                                              4
                        --------------------------------------------------------
                        eps_scf:                                        1.00E-06
                        eps_scf_history:                                0.00E+00
                        eps_diis:                                       1.00E-01
                        eps_eigval:                                     1.00E-05
                        --------------------------------------------------------
                        level_shift [a.u.]:                                 0.00
                        --------------------------------------------------------
                        Outer loop SCF in use 
                        No variables optimised in outer loop
                        eps_scf                                         1.00E-06
                        max_scf                                               20
                        No outer loop optimization
                        step_size                                       5.00E-01

 *******************************************************************************
 *******************************************************************************
 **                                                                           **
 **             #######  ##     ## ##     ## ##     ##                        **
 **            ##     ## ###   ### ###   ### ###   ###                        **
 **            ##     ## #### #### #### #### #### ####                        **
 **            ##     ## ## ### ## ## ### ## ## ### ##                        **
 **            ##  ## ## ##     ## ##     ## ##     ##                        **
 **            ##    ##  ##     ## ##     ## ##     ##  T.Laino and F.Mohamed **
 **             ##### ## ##     ## ##     ## ##     ##  2005 - 2015           **
 **                                                                           **
 **                                                     Calculation Started.. **
 *******************************************************************************
 *******************************************************************************

 MD_PAR| Molecular dynamics protocol (MD input parameters)
 MD_PAR| Ensemble type                                                       NVE
 MD_PAR| Number of time steps                                                  6
 MD_PAR| Time step [fs]                                                 1.000000
 MD_PAR| Temperature [K]                                              300.000000
 MD_PAR| Temperature tolerance [K]                                      0.000000
 MD_PAR| Print MD information every                                    1 step(s)
 MD_PAR| File type   Print frequency [steps]                          File names
 MD_PAR| Coordinates          1                           CBD_PHY-PBE0-pos-1.xyz
 MD_PAR| Velocities           1                           CBD_PHY-PBE0-vel-1.xyz
 MD_PAR| Energies             1                              CBD_PHY-PBE0-1.ener
 MD_PAR| Dump                20                           CBD_PHY-PBE0-1.restart

 ROT| Rotational analysis information
 ROT| Principal axes and moments of inertia [a.u.]
 ROT|                           1                   2                   3
 ROT| Eigenvalues      7.21623863333E+03   6.33320921951E+08   6.33322441751E+08
 ROT|      x              0.594439314747      0.755242083864      0.276136371824
 ROT|      y             -0.607310314858      0.646719561172     -0.461441210410
 ROT|      z             -0.527082614540      0.106598329996      0.843101840522
 ROT| Number of rotovibrational vectors                                        6

 DOF| Calculation of degrees of freedom
 DOF| Number of atoms                                                     167923
 DOF| Number of intramolecular constraints                                     0
 DOF| Number of intermolecular constraints                                     0
 DOF| Invariants (translations + rotations)                                    3
 DOF| Degrees of freedom                                                  503766

 DOF| Restraints information
 DOF| Number of intramolecular restraints                                      0
 DOF| Number of intermolecular restraints                                      0

 MD_VEL| Velocities initialization
 MD_VEL| Initial temperature [K]                                      300.000000
 MD_VEL| COM velocity            -0.0000000000     0.0000000000     0.0000000000

  Translating the system in order to center the QM fragment in the QM box.

 Number of electrons:                                                        180
 Number of occupied orbitals:                                                 90
 Number of molecular orbitals:                                                90

 Number of orbital functions:                                               1067
 Number of independent orbital functions:                                   1067

 Extrapolation method: initial_guess


 SCF WAVEFUNCTION OPTIMIZATION

  ----------------------------------- OT ---------------------------------------
  Minimizer      : DIIS                : direct inversion
                                         in the iterative subspace
                                         using   7 DIIS vectors
                                         safer DIIS on
  Preconditioner : FULL_ALL            : diagonalization, state selective
  Precond_solver : DEFAULT
  stepsize       :    0.15000000                  energy_gap     :    0.08000000
  eps_taylor     :   0.10000E-15                  max_taylor     :             4
  ----------------------------------- OT ---------------------------------------

  Step     Update method      Time    Convergence         Total energy    Change
  ------------------------------------------------------------------------------
  Decoupling Energy:                                               0.0370647021
  Recoupling Energy:                                              -0.0063741479
     1 OT DIIS     0.15E+00   21.7     0.00129057      -255.9257316490 -2.56E+02
  Decoupling Energy:                                               0.0370576004
  Recoupling Energy:                                              -0.0063740314
     2 OT DIIS     0.15E+00    6.9     0.00057761      -255.9419521948 -1.62E-02
  Decoupling Energy:                                               0.0369596417
  Recoupling Energy:                                              -0.0063730135
     3 OT DIIS     0.15E+00    6.8     0.00038348      -255.9451217290 -3.17E-03
  Decoupling Energy:                                               0.0369795470
  Recoupling Energy:                                              -0.0063732416
     4 OT DIIS     0.15E+00    6.8     0.00009866      -255.9458275741 -7.06E-04
  Decoupling Energy:                                               0.0369716948
  Recoupling Energy:                                              -0.0063731487
     5 OT DIIS     0.15E+00    6.8     0.00003992      -255.9458779659 -5.04E-05
  Decoupling Energy:                                               0.0369737640
  Recoupling Energy:                                              -0.0063731649
     6 OT DIIS     0.15E+00    6.8     0.00001793      -255.9458894143 -1.14E-05
  Decoupling Energy:                                               0.0369741808
  Recoupling Energy:                                              -0.0063731680
     7 OT DIIS     0.15E+00    6.8     0.00000621      -255.9458922911 -2.88E-06
  Decoupling Energy:                                               0.0369727127
  Recoupling Energy:                                              -0.0063731518
     8 OT DIIS     0.15E+00    6.8     0.00000242      -255.9458926301 -3.39E-07
  Decoupling Energy:                                               0.0369731060
  Recoupling Energy:                                              -0.0063731556
     9 OT DIIS     0.15E+00    6.8     0.00000111      -255.9458926795 -4.94E-08
  Decoupling Energy:                                               0.0369728227
  Recoupling Energy:                                              -0.0063731526
    10 OT DIIS     0.15E+00    6.9     0.00000048      -255.9458926897 -1.02E-08

  *** SCF run converged in    10 steps ***


  Electronic density on regular grids:       -179.9999999999        0.0000000001
  Core density on regular grids:              180.9999999999       -0.0000000001
  Total charge density on r-space grids:        1.0000000000
  Total charge density g-space grids:           1.0000000000

  Overlap energy of the core charge distribution:               0.00001951532734
  Self energy of the core charge distribution:               -615.71576003586028
  Core Hamiltonian energy:                                    191.01363228273391
  Hartree energy:                                             248.20663861896864
  Exchange-correlation energy:                                -61.38430761437699
  Hartree-Fock Exchange energy:                               -18.10821018317176
  QM/MM Electrostatic energy:                                   0.04209472671005

  Total energy:                                              -255.94589268966905

  outer SCF iter =    1 RMS gradient =   0.48E-06 energy =       -255.9458926897
  outer SCF loop converged in   1 iterations or   10 steps

  Decoupling Energy:                                               0.0369728028
  Recoupling Energy:                                              -0.0063731523

 ENERGY| Total FORCE_EVAL ( QMMM ) energy [a.u.]:          -1088.110859622362113

 MD_INI| MD initialization
 MD_INI| Potential energy [hartree]                          -0.108811085962E+04
 MD_INI| Total kinetic energy [hartree]                       0.239300084734E+03
 MD_INI| QM kinetic energy [hartree]                          0.106639360339E+00
 MD_INI| Total temperature [K]                                        300.000000
 MD_INI| QM temperature [K]                                           330.137318
 MD_INI| Cell volume [bohr^3]                                 1.137316355424E+07
 MD_INI| Cell volume [ang^3]                                  1.685328937712E+06
 MD_INI| Cell lengths [bohr]      2.24884969E+02  2.24884969E+02  2.24884969E+02
 MD_INI| Cell lengths [ang]       1.19004000E+02  1.19004000E+02  1.19004000E+02
 MD_INI| Cell angles [deg]        9.00000000E+01  9.00000000E+01  9.00000000E+01

  Translating the system in order to center the QM fragment in the QM box.

 Number of electrons:                                                        180
 Number of occupied orbitals:                                                 90
 Number of molecular orbitals:                                                90

 Number of orbital functions:                                               1067
 Number of independent orbital functions:                                   1067

 Extrapolation method: ASPC


 SCF WAVEFUNCTION OPTIMIZATION

  ----------------------------------- OT ---------------------------------------
  Minimizer      : DIIS                : direct inversion
                                         in the iterative subspace
                                         using   7 DIIS vectors
                                         safer DIIS on
  Preconditioner : FULL_ALL            : diagonalization, state selective
  Precond_solver : DEFAULT
  stepsize       :    0.15000000                  energy_gap     :    0.08000000
  eps_taylor     :   0.10000E-15                  max_taylor     :             4
  ----------------------------------- OT ---------------------------------------

  Step     Update method      Time    Convergence         Total energy    Change
  ------------------------------------------------------------------------------
  Decoupling Energy:                                               0.0370014665
  Recoupling Energy:                                              -0.0063734172
     1 OT DIIS     0.15E+00   14.9     0.00075899      -255.7182135351 -2.56E+02
  Decoupling Energy:                                               0.0370082401
  Recoupling Energy:                                              -0.0063735356
     2 OT DIIS     0.15E+00    7.2     0.00032685      -255.7237313775 -5.52E-03
  Decoupling Energy:                                               0.0370087430
  Recoupling Energy:                                              -0.0063735590
     3 OT DIIS     0.15E+00    7.2     0.00019068      -255.7247686945 -1.04E-03
  Decoupling Energy:                                               0.0370199903
  Recoupling Energy:                                              -0.0063736817
     4 OT DIIS     0.15E+00    7.2     0.00006054      -255.7249611365 -1.92E-04
  Decoupling Energy:                                               0.0370216785
  Recoupling Energy:                                              -0.0063737045
     5 OT DIIS     0.15E+00    7.2     0.00001954      -255.7249777015 -1.66E-05
  Decoupling Energy:                                               0.0370210027
  Recoupling Energy:                                              -0.0063736984
     6 OT DIIS     0.15E+00    7.2     0.00000817      -255.7249799599 -2.26E-06
  Decoupling Energy:                                               0.0370221951
  Recoupling Energy:                                              -0.0063737124
     7 OT DIIS     0.15E+00    7.2     0.00000308      -255.7249804220 -4.62E-07
  Decoupling Energy:                                               0.0370222404
  Recoupling Energy:                                              -0.0063737133
     8 OT DIIS     0.15E+00    7.2     0.00000136      -255.7249804992 -7.72E-08
  Decoupling Energy:                                               0.0370224680
  Recoupling Energy:                                              -0.0063737160
     9 OT DIIS     0.15E+00    7.2     0.00000058      -255.7249805149 -1.57E-08

  *** SCF run converged in     9 steps ***


  Electronic density on regular grids:       -180.0000000000        0.0000000000
  Core density on regular grids:              180.9999999999       -0.0000000001
  Total charge density on r-space grids:        0.9999999999
  Total charge density g-space grids:           0.9999999999

  Overlap energy of the core charge distribution:               0.00002422740145
  Self energy of the core charge distribution:               -615.71576003586028
  Core Hamiltonian energy:                                    191.21094364343051
  Hartree energy:                                             248.07775440694758
  Exchange-correlation energy:                                -61.42683491955320
  Hartree-Fock Exchange energy:                               -18.12283156604119
  QM/MM Electrostatic energy:                                   0.25172372876081

  Total energy:                                              -255.72498051491431

  outer SCF iter =    1 RMS gradient =   0.58E-06 energy =       -255.7249805149
  outer SCF loop converged in   1 iterations or    9 steps

  Decoupling Energy:                                               0.0370224966
  Recoupling Energy:                                              -0.0063737164

 ENERGY| Total FORCE_EVAL ( QMMM ) energy [a.u.]:          -1059.962356693478341

 MD| ***************************************************************************
 MD| Step number                                                               1
 MD| Time [fs]                                                          1.000000
 MD| Conserved quantity [hartree]                            -0.841461427864E+03
 MD| ---------------------------------------------------------------------------
 MD|                                          Instantaneous             Averages
 MD| CPU time per MD step [s]                    358.724105           358.724105
 MD| Energy drift per atom [K]           0.138202477856E+02   0.000000000000E+00
 MD| Potential energy [hartree]         -0.105996235669E+04  -0.105996235669E+04
 MD| Total kinetic energy [hartree]      0.218500928829E+03   0.218500928829E+03
 MD| QM kinetic energy [hartree]         0.121346703898E+00   0.121346703898E+00
 MD| Total temperature [K]                       273.925012           273.925012
 MD| QM temperature [K]                          375.668752           375.668752
 MD| ***************************************************************************

  Translating the system in order to center the QM fragment in the QM box.

 Number of electrons:                                                        180
 Number of occupied orbitals:                                                 90
 Number of molecular orbitals:                                                90

 Number of orbital functions:                                               1067
 Number of independent orbital functions:                                   1067

 Extrapolation method: ASPC


 SCF WAVEFUNCTION OPTIMIZATION

  ----------------------------------- OT ---------------------------------------
  Minimizer      : DIIS                : direct inversion
                                         in the iterative subspace
                                         using   7 DIIS vectors
                                         safer DIIS on
  Preconditioner : FULL_ALL            : diagonalization, state selective
  Precond_solver : DEFAULT
  stepsize       :    0.15000000                  energy_gap     :    0.08000000
  eps_taylor     :   0.10000E-15                  max_taylor     :             4
  ----------------------------------- OT ---------------------------------------

  Step     Update method      Time    Convergence         Total energy    Change
  ------------------------------------------------------------------------------
  Decoupling Energy:                                               0.0370782104
  Recoupling Energy:                                              -0.0063743359
     1 OT DIIS     0.15E+00   14.8     0.00029265      -255.3622519404 -2.55E+02
  Decoupling Energy:                                               0.0370714338
  Recoupling Energy:                                              -0.0063742685
     2 OT DIIS     0.15E+00    6.7     0.00012384      -255.3630882757 -8.36E-04
  Decoupling Energy:                                               0.0370747371
  Recoupling Energy:                                              -0.0063743004
     3 OT DIIS     0.15E+00    6.7     0.00005684      -255.3632556975 -1.67E-04
  Decoupling Energy:                                               0.0370720707
  Recoupling Energy:                                              -0.0063742775
     4 OT DIIS     0.15E+00    6.7     0.00001757      -255.3632745218 -1.88E-05
  Decoupling Energy:                                               0.0370725469
  Recoupling Energy:                                              -0.0063742816
     5 OT DIIS     0.15E+00    6.7     0.00000683      -255.3632760493 -1.53E-06
  Decoupling Energy:                                               0.0370729640
  Recoupling Energy:                                              -0.0063742866
     6 OT DIIS     0.15E+00    6.8     0.00000313      -255.3632763075 -2.58E-07
  Decoupling Energy:                                               0.0370729482
  Recoupling Energy:                                              -0.0063742865
     7 OT DIIS     0.15E+00    6.8     0.00000106      -255.3632763685 -6.10E-08
  Decoupling Energy:                                               0.0370730068
  Recoupling Energy:                                              -0.0063742872
     8 OT DIIS     0.15E+00    6.7     0.00000048      -255.3632763786 -1.02E-08

  *** SCF run converged in     8 steps ***


  Electronic density on regular grids:       -180.0000000000       -0.0000000000
  Core density on regular grids:              180.9999999999       -0.0000000001
  Total charge density on r-space grids:        0.9999999998
  Total charge density g-space grids:           0.9999999998

  Overlap energy of the core charge distribution:               0.00005088900794
  Self energy of the core charge distribution:               -615.71576003586028
  Core Hamiltonian energy:                                    191.44418724398963
  Hartree energy:                                             247.94136456171097
  Exchange-correlation energy:                                -61.47332413738508
  Hartree-Fock Exchange energy:                               -18.13880615242022
  QM/MM Electrostatic energy:                                   0.57901125233533

  Total energy:                                              -255.36327637862166

  outer SCF iter =    1 RMS gradient =   0.48E-06 energy =       -255.3632763786
  outer SCF loop converged in   1 iterations or    8 steps

  Decoupling Energy:                                               0.0370730233
  Recoupling Energy:                                              -0.0063742875

 ENERGY| Total FORCE_EVAL ( QMMM ) energy [a.u.]:          -1061.235329332079800

 MD| ***************************************************************************
 MD| Step number                                                               2
 MD| Time [fs]                                                          2.000000
 MD| Conserved quantity [hartree]                            -0.842817775664E+03
 MD| ---------------------------------------------------------------------------
 MD|                                          Instantaneous             Averages
 MD| CPU time per MD step [s]                    157.876690           258.300398
 MD| Energy drift per atom [K]           0.112696725284E+02   0.563483626421E+01
 MD| Potential energy [hartree]         -0.106123532933E+04  -0.106059884301E+04
 MD| Total kinetic energy [hartree]      0.218417553668E+03   0.218459241249E+03
 MD| QM kinetic energy [hartree]         0.111577141710E+00   0.116461922804E+00
 MD| Total temperature [K]                       273.820489           273.872750
 MD| QM temperature [K]                          345.423849           360.546301
 MD| ***************************************************************************

  Translating the system in order to center the QM fragment in the QM box.

 Number of electrons:                                                        180
 Number of occupied orbitals:                                                 90
 Number of molecular orbitals:                                                90

 Number of orbital functions:                                               1067
 Number of independent orbital functions:                                   1067

 Extrapolation method: ASPC


 SCF WAVEFUNCTION OPTIMIZATION

  ----------------------------------- OT ---------------------------------------
  Minimizer      : DIIS                : direct inversion
                                         in the iterative subspace
                                         using   7 DIIS vectors
                                         safer DIIS on
  Preconditioner : FULL_ALL            : diagonalization, state selective
  Precond_solver : DEFAULT
  stepsize       :    0.15000000                  energy_gap     :    0.08000000
  eps_taylor     :   0.10000E-15                  max_taylor     :             4
  ----------------------------------- OT ---------------------------------------

  Step     Update method      Time    Convergence         Total energy    Change
  ------------------------------------------------------------------------------
  Decoupling Energy:                                               0.0371231145
  Recoupling Energy:                                              -0.0063748338
     1 OT DIIS     0.15E+00   14.9     0.00057307      -254.8840284043 -2.55E+02
  Decoupling Energy:                                               0.0371263897
  Recoupling Energy:                                              -0.0063748788
     2 OT DIIS     0.15E+00    7.1     0.00022563      -254.8871538554 -3.13E-03
  Decoupling Energy:                                               0.0371270830
  Recoupling Energy:                                              -0.0063748846
     3 OT DIIS     0.15E+00    7.1     0.00008220      -254.8877091758 -5.55E-04
  Decoupling Energy:                                               0.0371223203
  Recoupling Energy:                                              -0.0063748372
     4 OT DIIS     0.15E+00    7.2     0.00002757      -254.8877593061 -5.01E-05
  Decoupling Energy:                                               0.0371233192
  Recoupling Energy:                                              -0.0063748479
     5 OT DIIS     0.15E+00    7.1     0.00001040      -254.8877631128 -3.81E-06
  Decoupling Energy:                                               0.0371231595
  Recoupling Energy:                                              -0.0063748450
     6 OT DIIS     0.15E+00    7.1     0.00000441      -254.8877637008 -5.88E-07
  Decoupling Energy:                                               0.0371230798
  Recoupling Energy:                                              -0.0063748446
     7 OT DIIS     0.15E+00    7.1     0.00000136      -254.8877637915 -9.07E-08
  Decoupling Energy:                                               0.0371230830
  Recoupling Energy:                                              -0.0063748446
     8 OT DIIS     0.15E+00    7.1     0.00000059      -254.8877638023 -1.09E-08

  *** SCF run converged in     8 steps ***


  Electronic density on regular grids:       -180.0000000003       -0.0000000003
  Core density on regular grids:              180.9999999999       -0.0000000001
  Total charge density on r-space grids:        0.9999999996
  Total charge density g-space grids:           0.9999999996

  Overlap energy of the core charge distribution:               0.00005124464443
  Self energy of the core charge distribution:               -615.71576003586028
  Core Hamiltonian energy:                                    191.49124189604697
  Hartree energy:                                             247.90729208218289
  Exchange-correlation energy:                                -61.48094359837302
  Hartree-Fock Exchange energy:                               -18.14140092134804
  QM/MM Electrostatic energy:                                   1.05175553036857

  Total energy:                                              -254.88776380233853

  outer SCF iter =    1 RMS gradient =   0.59E-06 energy =       -254.8877638023
  outer SCF loop converged in   1 iterations or    8 steps

  Decoupling Energy:                                               0.0371230823
  Recoupling Energy:                                              -0.0063748446

 ENERGY| Total FORCE_EVAL ( QMMM ) energy [a.u.]:          -1082.045341202300506

 MD| ***************************************************************************
 MD| Step number                                                               3
 MD| Time [fs]                                                          3.000000
 MD| Conserved quantity [hartree]                            -0.846392351753E+03
 MD| ---------------------------------------------------------------------------
 MD|                                          Instantaneous             Averages
 MD| CPU time per MD step [s]                    163.768931           226.789909
 MD| Energy drift per atom [K]           0.454777912539E+01   0.527248388461E+01
 MD| Potential energy [hartree]         -0.108204534120E+04  -0.106774767574E+04
 MD| Total kinetic energy [hartree]      0.235652989449E+03   0.224190490649E+03
 MD| QM kinetic energy [hartree]         0.117355235656E+00   0.116759693755E+00
 MD| Total temperature [K]                       295.427797           281.057766
 MD| QM temperature [K]                          363.311845           361.468149
 MD| ***************************************************************************

  Translating the system in order to center the QM fragment in the QM box.

 Number of electrons:                                                        180
 Number of occupied orbitals:                                                 90
 Number of molecular orbitals:                                                90

 Number of orbital functions:                                               1067
 Number of independent orbital functions:                                   1067

 Extrapolation method: ASPC


 SCF WAVEFUNCTION OPTIMIZATION

  ----------------------------------- OT ---------------------------------------
  Minimizer      : DIIS                : direct inversion
                                         in the iterative subspace
                                         using   7 DIIS vectors
                                         safer DIIS on
  Preconditioner : FULL_ALL            : diagonalization, state selective
  Precond_solver : DEFAULT
  stepsize       :    0.15000000                  energy_gap     :    0.08000000
  eps_taylor     :   0.10000E-15                  max_taylor     :             4
  ----------------------------------- OT ---------------------------------------

  Step     Update method      Time    Convergence         Total energy    Change
  ------------------------------------------------------------------------------
  Decoupling Energy:                                               0.0371654288
  Recoupling Energy:                                              -0.0063753279
     1 OT DIIS     0.15E+00   14.8     0.00026701      -254.3373019509 -2.54E+02
  Decoupling Energy:                                               0.0371743114
  Recoupling Energy:                                              -0.0063754106
     2 OT DIIS     0.15E+00    6.8     0.00010709      -254.3379945830 -6.93E-04
  Decoupling Energy:                                               0.0371690131
  Recoupling Energy:                                              -0.0063753557
     3 OT DIIS     0.15E+00    6.8     0.00004000      -254.3381231604 -1.29E-04
  Decoupling Energy:                                               0.0371715310
  Recoupling Energy:                                              -0.0063753819
     4 OT DIIS     0.15E+00    6.8     0.00001257      -254.3381330752 -9.91E-06
  Decoupling Energy:                                               0.0371702316
  Recoupling Energy:                                              -0.0063753690
     5 OT DIIS     0.15E+00    6.8     0.00000533      -254.3381339070 -8.32E-07
  Decoupling Energy:                                               0.0371705280
  Recoupling Energy:                                              -0.0063753714
     6 OT DIIS     0.15E+00    6.8     0.00000188      -254.3381340422 -1.35E-07
  Decoupling Energy:                                               0.0371705416
  Recoupling Energy:                                              -0.0063753718
     7 OT DIIS     0.15E+00    6.8     0.00000064      -254.3381340606 -1.83E-08

  *** SCF run converged in     7 steps ***


  Electronic density on regular grids:       -179.9999999999        0.0000000001
  Core density on regular grids:              180.9999999999       -0.0000000001
  Total charge density on r-space grids:        1.0000000000
  Total charge density g-space grids:           1.0000000000

  Overlap energy of the core charge distribution:               0.00002358443284
  Self energy of the core charge distribution:               -615.71576003586028
  Core Hamiltonian energy:                                    191.34732123447492
  Hartree energy:                                             247.97609766498806
  Exchange-correlation energy:                                -61.44936800562291
  Hartree-Fock Exchange energy:                               -18.13041827169511
  QM/MM Electrostatic energy:                                   1.63396976869449

  Total energy:                                              -254.33813406058800

  outer SCF iter =    1 RMS gradient =   0.64E-06 energy =       -254.3381340606
  outer SCF loop converged in   1 iterations or    7 steps

  Decoupling Energy:                                               0.0371704665
  Recoupling Energy:                                              -0.0063753710

 ENERGY| Total FORCE_EVAL ( QMMM ) energy [a.u.]:          -1079.714054183166127

 MD| ***************************************************************************
 MD| Step number                                                               4
 MD| Time [fs]                                                          4.000000
 MD| Conserved quantity [hartree]                            -0.842113598276E+03
 MD| ---------------------------------------------------------------------------
 MD|                                          Instantaneous             Averages
 MD| CPU time per MD step [s]                    150.188228           207.639489
 MD| Energy drift per atom [K]           0.125938590109E+02   0.710282766617E+01
 MD| Potential energy [hartree]         -0.107971405418E+04  -0.107073927035E+04
 MD| Total kinetic energy [hartree]      0.237600455907E+03   0.227542981963E+03
 MD| QM kinetic energy [hartree]         0.148327788738E+00   0.124651717500E+00
 MD| Total temperature [K]                       297.869250           285.260637
 MD| QM temperature [K]                          459.197601           385.900512
 MD| ***************************************************************************

  Translating the system in order to center the QM fragment in the QM box.

 Number of electrons:                                                        180
 Number of occupied orbitals:                                                 90
 Number of molecular orbitals:                                                90

 Number of orbital functions:                                               1067
 Number of independent orbital functions:                                   1067

 Extrapolation method: ASPC


 SCF WAVEFUNCTION OPTIMIZATION

  ----------------------------------- OT ---------------------------------------
  Minimizer      : DIIS                : direct inversion
                                         in the iterative subspace
                                         using   7 DIIS vectors
                                         safer DIIS on
  Preconditioner : FULL_ALL            : diagonalization, state selective
  Precond_solver : DEFAULT
  stepsize       :    0.15000000                  energy_gap     :    0.08000000
  eps_taylor     :   0.10000E-15                  max_taylor     :             4
  ----------------------------------- OT ---------------------------------------

  Step     Update method      Time    Convergence         Total energy    Change
  ------------------------------------------------------------------------------
  Decoupling Energy:                                               0.0372102441
  Recoupling Energy:                                              -0.0063758449
     1 OT DIIS     0.15E+00   14.9     0.00032184      -253.7449295130 -2.54E+02
  Decoupling Energy:                                               0.0372070568
  Recoupling Energy:                                              -0.0063758003
     2 OT DIIS     0.15E+00    7.2     0.00013179      -253.7458504002 -9.21E-04
  Decoupling Energy:                                               0.0372094858
  Recoupling Energy:                                              -0.0063758227
     3 OT DIIS     0.15E+00    7.2     0.00006226      -253.7460097960 -1.59E-04
  Decoupling Energy:                                               0.0372087105
  Recoupling Energy:                                              -0.0063758143
     4 OT DIIS     0.15E+00    7.2     0.00002408      -253.7460408948 -3.11E-05
  Decoupling Energy:                                               0.0372096144
  Recoupling Energy:                                              -0.0063758219
     5 OT DIIS     0.15E+00    7.2     0.00000524      -253.7460433762 -2.48E-06
  Decoupling Energy:                                               0.0372092949
  Recoupling Energy:                                              -0.0063758192
     6 OT DIIS     0.15E+00    7.1     0.00000250      -253.7460435198 -1.44E-07
  Decoupling Energy:                                               0.0372092927
  Recoupling Energy:                                              -0.0063758190
     7 OT DIIS     0.15E+00    7.1     0.00000089      -253.7460435516 -3.18E-08

  *** SCF run converged in     7 steps ***


  Electronic density on regular grids:       -180.0000000000       -0.0000000000
  Core density on regular grids:              180.9999999999       -0.0000000001
  Total charge density on r-space grids:        0.9999999998
  Total charge density g-space grids:           0.9999999998

  Overlap energy of the core charge distribution:               0.00001841776182
  Self energy of the core charge distribution:               -615.71576003586028
  Core Hamiltonian energy:                                    191.22474130524458
  Hartree energy:                                             248.04794834803170
  Exchange-correlation energy:                                -61.41798780768168
  Hartree-Fock Exchange energy:                               -18.11952151183101
  QM/MM Electrostatic energy:                                   2.23451773273767

  Total energy:                                              -253.74604355159724

  outer SCF iter =    1 RMS gradient =   0.89E-06 energy =       -253.7460435516
  outer SCF loop converged in   1 iterations or    7 steps

  Decoupling Energy:                                               0.0372093240
  Recoupling Energy:                                              -0.0063758193

 ENERGY| Total FORCE_EVAL ( QMMM ) energy [a.u.]:          -1094.307011090050764

 MD| ***************************************************************************
 MD| Step number                                                               5
 MD| Time [fs]                                                          5.000000
 MD| Conserved quantity [hartree]                            -0.848389415489E+03
 MD| ---------------------------------------------------------------------------
 MD|                                          Instantaneous             Averages
 MD| CPU time per MD step [s]                    157.595435           197.630678
 MD| Energy drift per atom [K]           0.792354924574E+00   0.584073311785E+01
 MD| Potential energy [hartree]         -0.109430701109E+04  -0.107545281850E+04
 MD| Total kinetic energy [hartree]      0.245917595601E+03   0.231217904691E+03
 MD| QM kinetic energy [hartree]         0.157565384194E+00   0.131234450839E+00
 MD| Total temperature [K]                       308.296083           289.867726
 MD| QM temperature [K]                          487.795625           406.279534
 MD| ***************************************************************************

  Translating the system in order to center the QM fragment in the QM box.

 Number of electrons:                                                        180
 Number of occupied orbitals:                                                 90
 Number of molecular orbitals:                                                90

 Number of orbital functions:                                               1067
 Number of independent orbital functions:                                   1067

 Extrapolation method: ASPC


 SCF WAVEFUNCTION OPTIMIZATION

  ----------------------------------- OT ---------------------------------------
  Minimizer      : DIIS                : direct inversion
                                         in the iterative subspace
                                         using   7 DIIS vectors
                                         safer DIIS on
  Preconditioner : FULL_ALL            : diagonalization, state selective
  Precond_solver : DEFAULT
  stepsize       :    0.15000000                  energy_gap     :    0.08000000
  eps_taylor     :   0.10000E-15                  max_taylor     :             4
  ----------------------------------- OT ---------------------------------------

  Step     Update method      Time    Convergence         Total energy    Change
  ------------------------------------------------------------------------------
  Decoupling Energy:                                               0.0372439978
  Recoupling Energy:                                              -0.0063762174
     1 OT DIIS     0.15E+00   14.9     0.00048995      -253.1925137275 -2.53E+02
  Decoupling Energy:                                               0.0372420956
  Recoupling Energy:                                              -0.0063762281
     2 OT DIIS     0.15E+00    6.9     0.00019240      -253.1946668604 -2.15E-03
  Decoupling Energy:                                               0.0372395763
  Recoupling Energy:                                              -0.0063761940
     3 OT DIIS     0.15E+00    6.9     0.00008081      -253.1950252891 -3.58E-04
  Decoupling Energy:                                               0.0372399299
  Recoupling Energy:                                              -0.0063761994
     4 OT DIIS     0.15E+00    6.9     0.00002229      -253.1950842573 -5.90E-05
  Decoupling Energy:                                               0.0372387671
  Recoupling Energy:                                              -0.0063761867
     5 OT DIIS     0.15E+00    6.8     0.00000828      -253.1950868071 -2.55E-06
  Decoupling Energy:                                               0.0372394935
  Recoupling Energy:                                              -0.0063761929
     6 OT DIIS     0.15E+00    6.8     0.00000287      -253.1950871589 -3.52E-07
  Decoupling Energy:                                               0.0372392280
  Recoupling Energy:                                              -0.0063761904
     7 OT DIIS     0.15E+00    6.9     0.00000086      -253.1950871992 -4.04E-08

  *** SCF run converged in     7 steps ***


  Electronic density on regular grids:       -180.0000000000       -0.0000000000
  Core density on regular grids:              180.9999999999       -0.0000000001
  Total charge density on r-space grids:        0.9999999999
  Total charge density g-space grids:           0.9999999999

  Overlap energy of the core charge distribution:               0.00001843294938
  Self energy of the core charge distribution:               -615.71576003586028
  Core Hamiltonian energy:                                    191.21895243397168
  Hartree energy:                                             248.05853185236154
  Exchange-correlation energy:                                -61.40902890343143
  Hartree-Fock Exchange energy:                               -18.11645443431478
  QM/MM Electrostatic energy:                                   2.76865345507638

  Total energy:                                              -253.19508719924755

  outer SCF iter =    1 RMS gradient =   0.86E-06 energy =       -253.1950871992
  outer SCF loop converged in   1 iterations or    7 steps

  Decoupling Energy:                                               0.0372392194
  Recoupling Energy:                                              -0.0063761902

 ENERGY| Total FORCE_EVAL ( QMMM ) energy [a.u.]:          -1057.339965248995213

 MD| ***************************************************************************
 MD| Step number                                                               6
 MD| Time [fs]                                                          6.000000
 MD| Conserved quantity [hartree]                            -0.842900323404E+03
 MD| ---------------------------------------------------------------------------
 MD|                                          Instantaneous             Averages
 MD| CPU time per MD step [s]                    152.014970           190.028060
 MD| Energy drift per atom [K]           0.111144437421E+02   0.671968488855E+01
 MD| Potential energy [hartree]         -0.105733996525E+04  -0.107243400963E+04
 MD| Total kinetic energy [hartree]      0.214439641845E+03   0.228421527550E+03
 MD| QM kinetic energy [hartree]         0.141133453042E+00   0.132884284540E+00
 MD| Total temperature [K]                       268.833555           286.362031
 MD| QM temperature [K]                          436.925161           411.387139
 MD| ***************************************************************************

 -------------------------------------------------------------------------------
 -                                                                             -
 -                                DBCSR STATISTICS                             -
 -                                                                             -
 -------------------------------------------------------------------------------
 COUNTER                                    TOTAL       BLAS       SMM       ACC
 flops    26 x    26 x    26             13709280       0.0%      0.0%    100.0%
 flops    26 x    32 x    26             33745920       0.0%      0.0%    100.0%
 flops    32 x    26 x    26             33745920       0.0%      0.0%    100.0%
 flops    26 x    26 x    32             33745920       0.0%      0.0%    100.0%
 flops    32 x    32 x    26             83066880       0.0%      0.0%    100.0%
 flops    26 x    32 x    32             83066880       0.0%      0.0%    100.0%
 flops    32 x    26 x    32             83066880       0.0%      0.0%    100.0%
 flops    26 x    26 x     9             92756664       0.0%      0.0%    100.0%
 flops     9 x    26 x    26            115243128       0.0%      0.0%    100.0%
 flops     9 x     9 x    26            165405240       0.0%      0.0%    100.0%
 flops    32 x    32 x    32            204472320       0.0%      0.0%    100.0%
 flops    26 x    32 x     9            228324096       0.0%      0.0%    100.0%
 flops    32 x    26 x     9            228324096       0.0%      0.0%    100.0%
 flops    26 x    26 x    22            240480240       0.0%      0.0%    100.0%
 flops     9 x    32 x    26            276756480       0.0%      0.0%    100.0%
 flops     9 x    26 x    32            276756480       0.0%      0.0%    100.0%
 flops    22 x    26 x    26            298778480       0.0%      0.0%    100.0%
 flops     9 x     9 x    32            407151360       0.0%      0.0%    100.0%
 flops    22 x     9 x    26            415855440       0.0%      0.0%    100.0%
 flops     9 x    22 x    26            416576160       0.0%      0.0%    100.0%
 flops    32 x    32 x     9            562028544       0.0%      0.0%    100.0%
 flops    26 x    32 x    22            591951360       0.0%      0.0%    100.0%
 flops    32 x    26 x    22            591951360       0.0%      0.0%    100.0%
 flops     9 x    32 x    32            689762304       0.0%      0.0%    100.0%
 flops    22 x    32 x    26            717516800       0.0%      0.0%    100.0%
 flops    22 x    26 x    32            717516800       0.0%      0.0%    100.0%
 flops    22 x     9 x    32           1023644160       0.0%      0.0%    100.0%
 flops     9 x    22 x    32           1025418240       0.0%      0.0%    100.0%
 flops    22 x    22 x    26           1109908800       0.0%      0.0%    100.0%
 flops     9 x    26 x     9           1380647268       0.0%      0.0%    100.0%
 flops    32 x    32 x    22           1457111040       0.0%      0.0%    100.0%
 flops    22 x    32 x    32           1788272640       0.0%      0.0%    100.0%
 flops    22 x    22 x    32           2732083200       0.0%      0.0%    100.0%
 flops     9 x    32 x     9           3398516352       0.0%      0.0%    100.0%
 flops    22 x    26 x     9           3579455880       0.0%      0.0%    100.0%
 flops     9 x    26 x    22           3579455880       0.0%      0.0%    100.0%
 flops    22 x    32 x     9           8810968320       0.0%      0.0%    100.0%
 flops     9 x    32 x    22           8810968320       0.0%      0.0%    100.0%
 flops    22 x    26 x    22           9280070800       0.0%      0.0%    100.0%
 flops    22 x    32 x    22          22843251200       0.0%      0.0%    100.0%
 flops inhomo. stacks                           0       0.0%      0.0%      0.0%
 flops total                        78.421527E+09       0.0%      0.0%    100.0%
 flops max/rank                     13.925976E+09       0.0%      0.0%    100.0%
 matmuls inhomo. stacks                         0       0.0%      0.0%      0.0%
 matmuls total                            4992822       0.0%      0.0%    100.0%
 number of processed stacks                426267       0.0%      0.0%    100.0%
 average stack size                                     0.0       0.0      11.7
 marketing flops                    85.671830E+09
 -------------------------------------------------------------------------------
 # multiplications                           1286
 max memory usage/rank               6.333764E+09
 # max total images/rank                        2
 # max 3D layers                                1
 # MPI messages exchanged                   51440
 MPI messages size (bytes):
  total size                        10.161478E+09
  min size                           0.000000E+00
  max size                           1.196352E+06
  average size                     197.540391E+03
 MPI breakdown and total messages size (bytes):
             size <=      128               11951                        0
       128 < size <=     8192                9561                 70525344
      8192 < size <=    32768                3510                 48859200
     32768 < size <=   131072               14910               1232564256
    131072 < size <=  4194304               11508               8809536120
   4194304 < size <= 16777216                   0                        0
  16777216 < size                               0                        0
 -------------------------------------------------------------------------------

 *** WARNING in dbcsr_mm.F:294 :: Using a non-square number of MPI ranks ***
 *** might lead to poor performance. Used ranks: 8 Suggested: 9 16       ***

 -------------------------------------------------------------------------------
 -                                                                             -
 -                      DBCSR MESSAGE PASSING PERFORMANCE                      -
 -                                                                             -
 -------------------------------------------------------------------------------
 ROUTINE             CALLS      AVE VOLUME [Bytes]
 MP_Bcast               41                     12.
 MP_Allreduce         4615                      8.
 MP_Alltoall          5344                  38949.
 MP_ISend            19180                  81914.
 MP_IRecv            19180                  77186.
 -------------------------------------------------------------------------------

 -------------------------------------------------------------------------------
 -                                                                             -
 -                                GRID STATISTICS                              -
 -                                                                             -
 -------------------------------------------------------------------------------
 LP    KERNEL             BACKEND                              COUNT     PERCENT
 2     collocate ortho    GPU                                1935914      19.15%
 2     integrate ortho    GPU                                1906668      18.86%
 1     collocate ortho    GPU                                1672709      16.54%
 1     integrate ortho    GPU                                1542789      15.26%
 3     integrate ortho    GPU                                 940503       9.30%
 3     collocate ortho    GPU                                 816065       8.07%
 0     collocate ortho    GPU                                 503426       4.98%
 0     integrate ortho    GPU                                 447480       4.43%
 4     integrate ortho    GPU                                 200732       1.99%
 4     collocate ortho    GPU                                 123816       1.22%
 5     integrate ortho    GPU                                  13758       0.14%
 0     collocate general  REF                                   3808       0.04%
 1     integrate general  REF                                   3808       0.04%
 -------------------------------------------------------------------------------

 MEMORY| Estimated peak process memory [MiB]                                6041

 -------------------------------------------------------------------------------
 -                                                                             -
 -                         MESSAGE PASSING PERFORMANCE                         -
 -                                                                             -
 -------------------------------------------------------------------------------

 ROUTINE             CALLS      AVE VOLUME [Bytes]
 MP_Group                8
 MP_Bcast             6928               10586816.
 MP_Allreduce         2523                1629012.
 MP_Sync               430
 MP_Alltoall          1330              143193057.
 MP_ISendRecv         3773                1248005.
 MP_Wait              6300
 MP_comm_split          14
 MP_ISend             2023                5093744.
 MP_IRecv             2016                5108587.
 MP_Recv                21                 196328.
 -------------------------------------------------------------------------------


 -------------------------------------------------------------------------------
 -                                                                             -
 -                           R E F E R E N C E S                               -
 -                                                                             -
 -------------------------------------------------------------------------------
 
 CP2K version 8.2, the CP2K developers group (2021).
 CP2K is freely available from https://www.cp2k.org/ .

 Kuehne,Thomas D.; Iannuzzi,Marcella; Del Ben,Mauro;
 Rybkin,Vladimir V.; Seewald,Patrick; Stein,Frederick; Laino,Teodoro;
 Khaliullin,Rustam Z.; Schuett,Ole; Schiffmann,Florian; Golze,Dorothea;
 Wilhelm,Jan; Chulkov,Sergey; Bani-Hashemian,Mohammad Hossein;
 Weber,Valery; Borstnik,Urban; Taillefumier,Mathieu;
 Jakobovits,Alice Shoshana; Lazzaro,Alfio; Pabst,Hans; Mueller,Tiziano;
 Schade,Robert; Guidon,Manuel; Andermatt,Samuel; Holmberg,Nico;
 Schenter,Gregory K.; Hehn,Anna; Bussy,Augustin; Belleflamme,Fabian;
 Tabacchi,Gloria; Gloess,Andreas; Lass,Michael; Bethune,Iain;
 Mundy,Christopher J.; Plessl,Christian; Watkins,Matt;
 VandeVondele,Joost; Krack,Matthias; Hutter,Juerg. 
 The Journal of Chemical Physics, 152 (19), (2020). 
 CP2K: An electronic structure and molecular dynamics software package -
 Quickstep: Efficient and accurate electronic structure calculations.
 https://doi.org/10.1063/5.0007045

 Schuett, Ole; Messmer, Peter; Hutter, Juerg; VandeVondele, Joost. 
 Electronic Structure Calculations on Graphics Processing Units, John
 Wiley & Sons, Ltd, 173-190 (2016). 
 GPU-Accelerated Sparse Matrix-Matrix Multiplication for
 Linear Scaling Density Functional Theory.
 https://doi.org/10.1002/9781118670712.ch8

 Heinecke, A; Henry, G; Hutchinson, M; Pabst, H. 
 Proceedings of Intl. Supercomputing Conference, 981-991 (2016). 
 LIBXSMM: Accelerating Small Matrix Multiplications
 by Runtime Code Generation.
 https://doi.org/10.1109/SC.2016.83

 Borstnik, U; VandeVondele, J; Weber, V; Hutter, J. 
 PARALLEL COMPUTING, 40 (5-6), 47-58 (2014). 
 Sparse matrix multiplication: The distributed block-compressed sparse
 row library.
 https://doi.org/10.1016/j.parco.2014.03.012

 Hutter, J; Iannuzzi, M; Schiffmann, F; VandeVondele, J. 
 WIREs Comput Mol Sci., 4 (1), 15-25 (2014). 
 CP2K: atomistic simulations of condensed matter systems.
 https://doi.org/10.1002/wcms.1159

 Marek, A; Blum, V; Johanni, R; Havu, V; Lang, B; Auckenthaler, T;
 Heinecke, A; Bungartz, H; Lederer, H. 
 Journal of Physics: Condensed Matter, 26 (21), (2014). 
 The ELPA library: scalable parallel eigenvalue solutions for
 electronic structure
 theory and computational science.
 https://doi.org/10.1088/0953-8984/26/21/213201

 Guidon, M; Hutter, J; VandeVondele, J. 
 JOURNAL OF CHEMICAL THEORY AND COMPUTATION, 5 (11), 3010-3021 (2009). 
 Robust Periodic Hartree-Fock Exchange for Large-Scale Simulations Using
 Gaussian Basis Sets.
 https://doi.org/10.1021/ct900494g

 Guidon, M; Schiffmann, F; Hutter, J; VandeVondele, J. 
 JOURNAL OF CHEMICAL PHYSICS, 128 (21), 214104 (2008). 
 Ab initio molecular dynamics using hybrid density functionals.
 https://doi.org/10.1063/1.2931945

 Kuhne, TD; Krack, M; Mohamed, FR; Parrinello, M. 
 PHYSICAL REVIEW LETTERS, 98 (6), 066401 (2007). 
 Efficient and accurate Car-Parrinello-like approach to
 Born-Oppenheimer molecular dynamics.
 https://doi.org/10.1103/PhysRevLett.98.066401

 Laino, T; Mohamed, F; Laio, A; Parrinello, M. 
 JOURNAL OF CHEMICAL THEORY AND COMPUTATION, 2 (5), 1370-1378 (2006). 
 An efficient linear-scaling electrostatic coupling for treating
 periodic boundary conditions in QM/MM simulations.
 https://doi.org/10.1021/ct6001169

 Laino, T; Mohamed, F; Laio, A; Parrinello, M. 
 JOURNAL OF CHEMICAL THEORY AND COMPUTATION, 1 (6), 1176-1184 (2005). 
 An efficient real space multigrid QM/MM electrostatic coupling.
 https://doi.org/10.1021/ct050123f

 Krack, M. 
 THEORETICAL CHEMISTRY ACCOUNTS, 114 (1-3), 145-152 (2005). 
 Pseudopotentials for H to Kr optimized for gradient-corrected
 exchange-correlation functionals.
 https://doi.org/10.1007/s00214-005-0655-y

 VandeVondele, J; Krack, M; Mohamed, F; Parrinello, M; Chassaing, T;
 Hutter, J. COMPUTER PHYSICS COMMUNICATIONS, 167 (2), 103-128 (2005). 
 QUICKSTEP: Fast and accurate density functional calculations using a
 mixed Gaussian and plane waves approach.
 https://doi.org/10.1016/j.cpc.2004.12.014

 Frigo, M; Johnson, SG. 
 PROCEEDINGS OF THE IEEE, 93 (2), 216-231 (2005). 
 The design and implementation of FFTW3.
 https://doi.org/10.1109/JPROC.2004.840301

 Kolafa, J. 
 JOURNAL OF COMPUTATIONAL CHEMISTRY, 25 (3), 335-342 (2004). 
 Time-reversible always stable predictor-corrector method for molecular dynamics of polarizable molecules.
 https://doi.org/10.1002/jcc.10385

 VandeVondele, J; Hutter, J. 
 JOURNAL OF CHEMICAL PHYSICS, 118 (10), 4365-4369 (2003). 
 An efficient orbital transformation method for electronic structure
 calculations.
 https://doi.org/10.1063/1.1543154

 Hartwigsen, C; Goedecker, S; Hutter, J. 
 PHYSICAL REVIEW B, 58 (7), 3641-3662 (1998). 
 Relativistic separable dual-space Gaussian pseudopotentials from H to Rn.
 https://doi.org/10.1103/PhysRevB.58.3641

 Lippert, G; Hutter, J; Parrinello, M. 
 MOLECULAR PHYSICS, 92 (3), 477-487 (1997). 
 A hybrid Gaussian and plane wave density functional scheme.
 https://doi.org/10.1080/002689797170220

 Perdew, JP; Burke, K; Ernzerhof, M. 
 PHYSICAL REVIEW LETTERS, 77 (18), 3865-3868 (1996). 
 Generalized gradient approximation made simple.
 https://doi.org/10.1103/PhysRevLett.77.3865

 Goedecker, S; Teter, M; Hutter, J. 
 PHYSICAL REVIEW B, 54 (3), 1703-1710 (1996). 
 Separable dual-space Gaussian pseudopotentials.
 https://doi.org/10.1103/PhysRevB.54.1703

 ESSMANN, U; PERERA, L; BERKOWITZ, ML; DARDEN, T; LEE, H; PEDERSEN, LG. 
 JOURNAL OF CHEMICAL PHYSICS, 103 (19), 8577-8593 (1995). 
 A SMOOTH PARTICLE MESH EWALD METHOD.
 https://doi.org/10.1063/1.470117

 BLOCHL, PE. 
 JOURNAL OF CHEMICAL PHYSICS, 103 (17), 7422-7428 (1995). 
 ELECTROSTATIC DECOUPLING OF PERIODIC IMAGES OF PLANE-WAVE-EXPANDED
 DENSITIES AND DERIVED ATOMIC POINT CHARGES.
 https://doi.org/10.1063/1.470314


 -------------------------------------------------------------------------------
 -                                                                             -
 -                                T I M I N G                                  -
 -                                                                             -
 -------------------------------------------------------------------------------
 SUBROUTINE                       CALLS  ASD         SELF TIME        TOTAL TIME
                                MAXIMUM       AVERAGE  MAXIMUM  AVERAGE  MAXIMUM
 CP2K                                 1  1.0    0.519    0.545 1187.167 1187.169
 qs_mol_dyn_low                       1  2.0    0.015    0.016 1141.629 1145.055
 velocity_verlet                      6  3.0    0.054    0.061  948.248  948.629
 qs_forces                            7  3.9    0.001    0.001  798.967  798.972
 rebuild_ks_matrix                   63  8.5    0.000    0.000  749.111  749.191
 qs_ks_build_kohn_sham_matrix        63  9.5    0.009    0.009  749.110  749.191
 hfx_ks_matrix                       63 10.5    0.002    0.002  655.996  656.003
 qs_energies                          7  4.9    0.000    0.000  475.351  475.361
 scf_env_do_scf                       7  5.9    0.000    0.001  463.638  463.639
 qs_ks_update_qs_env                 63  7.8    0.001    0.001  425.771  425.845
 integrate_four_center               63 11.5    2.113    2.437  379.720  379.726
 integrate_four_center_main          63 12.5    2.910    3.288  366.560  370.359
 integrate_four_center_bin         4040 13.5  363.650  367.643  363.650  367.643
 scf_env_do_scf_inner_loop           56  6.8    0.001    0.003  354.295  354.303
 qs_ks_update_qs_env_forces           7  4.9    0.000    0.000  323.365  323.374
 derivatives_four_center              7  8.9    0.039    0.292  276.260  276.261
 derivatives_four_center_main         7  9.9    0.932    1.564  275.602  275.602
 derivatives_four_center_bin        497 10.9  272.964  273.806  272.964  273.806
 qmmm_el_coupling                     7  3.9    0.000    0.000  149.894  150.056
 qmmm_elec_with_gaussian              7  4.9    0.105    0.123  149.875  150.042
 qmmm_forces                          7  3.9    0.029    0.031  131.325  131.328
 qmmm_forces_with_gaussian            7  4.9    0.135    0.145  128.402  128.697
 qmmm_elec_with_gaussian_low          7  5.9    0.000    0.000  124.154  127.349
 init_scf_loop                        7  6.9    0.000    0.000  109.330  109.331
 qmmm_force_with_gaussian_low         7  5.9    0.000    0.000  100.905  101.330
 qmmm_forces_gaussian_low_R           7  6.9    0.000    0.000   80.928   81.174
 qmmm_forces_with_gaussian_LG         7  7.9   80.928   81.174   80.928   81.174
 pw_transfer                       1337 12.0    0.092    0.097   67.856   71.505
 fft_wrap_pw1pw2                   1113 13.1    0.012    0.013   66.951   70.604
 qmmm_elec_gaussian_low_R             7  6.9    0.000    0.000   65.217   67.763
 qmmm_elec_with_gaussian_LG           7  7.9   65.217   67.763   65.217   67.763
 fft_wrap_pw1pw2_200                707 14.4    0.004    0.004   63.899   67.572
 qmmm_elec_gaussian_low_G             7  6.9   58.937   59.587   58.937   59.587
 fist_calc_energy_force               7  3.9    0.068    0.071   56.245   56.480
 qs_vxc_create                       63 10.5    0.002    0.002   52.408   52.478
 xc_vxc_pw_create                    63 11.5    1.737    1.842   52.407   52.477
 force_nonbond                        7  4.9   24.588   41.809   24.588   41.809
 qmmm_env_create                      1  2.0    9.392    9.452   41.475   41.481
 pw_integral_ab                    2967  7.5   39.133   39.786   40.359   40.904
 pw_cuda_c1dr3d_3d_ps               595 15.5    0.012    0.014   35.938   37.207
 mp_sum_d                          1943  9.8   20.646   34.228   20.646   34.228
 pw_cuda_r3dc1d_3d_ps               518 14.7    0.010    0.011   30.995   33.741
 xc_rho_set_and_dset_create          63 12.5    0.217    0.251   25.069   26.511
 fist_init                            1  3.0    0.000    0.000   25.689   25.691
 pw_restrict_s3                      21  5.9    2.737    2.832   23.510   23.786
 -------------------------------------------------------------------------------

 The number of warnings for this run is : 1
 
 -------------------------------------------------------------------------------
  **** **** ******  **  PROGRAM ENDED AT                 2021-07-26 12:42:24.674
 ***** ** ***  *** **   PROGRAM RAN ON                                    r2i5n3
 **    ****   ******    PROGRAM RAN BY                                    hollyj
 ***** **    ** ** **   PROGRAM PROCESS ID                                 20647
  **** **  *******  **  PROGRAM STOPPED IN /lustre/home/w68/hollyj/CP2K/Cirrus/G
                                           PU/cp2kMD/CBD_PHY-PBE0/6STEPS/2NODES/
                                           36CPN/10THREADS
