 DBCSR| CPU Multiplication driver                                           XSMM
 DBCSR| Multrec recursion limit                                              512
 DBCSR| Multiplication stack size                                           1000
 DBCSR| Maximum elements for images                                    UNLIMITED
 DBCSR| Multiplicative factor virtual images                                   1
 DBCSR| Use multiplication densification                                       T
 DBCSR| Multiplication size stacks                                             3
 DBCSR| Use memory pool for CPU allocation                                     F
 DBCSR| Number of 3D layers                                               SINGLE
 DBCSR| Use MPI memory allocation                                              F
 DBCSR| Use RMA algorithm                                                      F
 DBCSR| Use Communication thread                                               T
 DBCSR| Communication thread load                                             87
 DBCSR| MPI: My node id                                                        0
 DBCSR| MPI: Number of nodes                                                  36
 DBCSR| OMP: Current number of threads                                         1
 DBCSR| OMP: Max number of threads                                             1
 DBCSR| Split modifier for TAS multiplication algorithm                  1.0E+00


  **** **** ******  **  PROGRAM STARTED AT               2021-04-19 19:00:22.599
 ***** ** ***  *** **   PROGRAM STARTED ON                                r1i1n6
 **    ****   ******    PROGRAM STARTED BY                                hollyj
 ***** **    ** ** **   PROGRAM PROCESS ID                                 59418
  **** **  *******  **  PROGRAM STARTED IN /lustre/home/w68/hollyj/CP2K/Cirrus/C
                                           PU/cp2kMD/CBD_PHY-PBE0/6STEPS/1NODES/
                                           36CPN/1THREADS

 CP2K| version string:                                          CP2K version 8.1
 CP2K| source code revision number:                                  git:0b61f2f
 CP2K| cp2kflags: omp libint fftw3 libxc elpa parallel mpi3 scalapack xsmm spgli
 CP2K|            b mkl
 CP2K| is freely available from                            https://www.cp2k.org/
 CP2K| Program compiled at                           Mon Feb 1 13:14:42 GMT 2021
 CP2K| Program compiled on                                         cirrus-login1
 CP2K| Program compiled for                                           Cirrus-gcc
 CP2K| Data directory path       /lustre/home/w68/hollyj/CP2K/v8.1/cp2k-8.1/data
 CP2K| Input file name                                          CBD_PHY-cp2k.inp

 GLOBAL| Force Environment number                                              1
 GLOBAL| Basis set file name                                           HFX_BASIS
 GLOBAL| Potential file name                                           POTENTIAL
 GLOBAL| MM Potential file name                                     MM_POTENTIAL
 GLOBAL| Coordinate file name                                        CBD_PHY.pdb
 GLOBAL| Method name                                                        CP2K
 GLOBAL| Project name                                               CBD_PHY-PBE0
 GLOBAL| Preferred FFT library                                             FFTW3
 GLOBAL| Preferred diagonalization lib.                                     ELPA
 GLOBAL| Run type                                                             MD
 GLOBAL| All-to-all communication in single precision                          F
 GLOBAL| FFTs using library dependent lengths                                  F
 GLOBAL| Global print level                                                  LOW
 GLOBAL| MPI I/O enabled                                                       T
 GLOBAL| Total number of message passing processes                            36
 GLOBAL| Number of threads for this process                                    1
 GLOBAL| This output is from process                                           0
 GLOBAL| CPU model name                Intel(R) Xeon(R) CPU E5-2695 v4 @ 2.10GHz
 GLOBAL| CPUID                                                              1002
 GLOBAL| Compiled for CPUID                                                 1001

 *** HINT in environment.F:802 :: The compiler target flags (x86_avx) used ***
 *** to build this binary cannot exploit all extensions of this CPU model  ***
 *** (x86_avx2). Consider compiler target flags as part of FCFLAGS and     ***
 *** CFLAGS (ARCH file).                                                   ***


 MEMORY| system memory details [Kb]
 MEMORY|                        rank 0           min           max       average
 MEMORY| MemTotal            263692180     263692180     263692180     263692180
 MEMORY| MemFree             258453124     258453124     258453124     258453124
 MEMORY| Buffers                     0             0             0             0
 MEMORY| Cached                 784592        784592        784592        784592
 MEMORY| Slab                   965888        965888        965888        965888
 MEMORY| SReclaimable           217816        217816        217816        217816
 MEMORY| MemLikelyFree       259455532     259455532     259455532     259455532



                      ************* ******** ***********   
                     ************* **********************  
                     ****     **** ****      ***********   
                     ******** ****  *******     ****       
                     *******  ****   *******   ****        
                     ****     ****       ****  ****        
                     ****     **** **********  ****        
                      ****     **** ********    ****       
                     FRONTIERS IN SIMULATION TECHNOLOGY    
                                                           
                        C.J. Mundy, S. Balasubramanian,    
                     Ken Bagchi, J. Hutter, Ari Seitsonen  
                      IFW Kuo, T. Laino, J. VandeVondele   
                                 Version 1.0               

                                                           


 EWALD| Summation is done by:                                               SPME
 EWALD| Alpha parameter [       ANGSTROM^-1]                              0.4000
 EWALD| Real Space Cutoff [          ANGSTROM]                            8.4348
 EWALD| G-space max. Miller index                         80        80        80
 EWALD| Spline interpolation order                                             6

 FORCEFIELD| WARNING: A non Critical ForceField parameter is missing! CP2K GOES!
 FORCEFIELD| Non critical parameters are:Urey-Bradley,Torsions,Impropers, Opbends and 1-4
 FORCEFIELD| All missing parameters will not contribute to the potential energy!
 FORCEFIELD| Activate the print key FF_INFO to have a list of missing parameters

 CHARGE_INFO| Total Charge of the Classical System:                    -0.825808

 SPLINE_INFO| Generating 101926 splines for NONBONDED14 interactions 
              Due to 451 different atomic kinds
  ...10192  ...20384  ...30576  ...40768  ...50960  ...61152  ...71344  ...81536  ...91728  ...101920
 SPLINE_INFO| Number of unique splines computed:            301
 SPLINE_INFO| Done

 SPLINE_INFO| Generating 101926 splines for NONBONDED interactions 
              Due to 451 different atomic kinds
  ...10192  ...20384  ...30576  ...40768  ...50960  ...61152  ...71344  ...81536  ...91728  ...101920
 SPLINE_INFO| Number of unique splines computed:            301
 SPLINE_INFO| Done

 *******************************************************************************
 *******************************************************************************
 **                                                                           **
 **     #####                         ##              ##                      **
 **    ##   ##            ##          ##              ##                      **
 **   ##     ##                       ##            ######                    **
 **   ##     ##  ##   ##  ##   #####  ##  ##   ####   ##    #####    #####    **
 **   ##     ##  ##   ##  ##  ##      ## ##   ##      ##   ##   ##  ##   ##   **
 **   ##  ## ##  ##   ##  ##  ##      ####     ###    ##   ######   ######    **
 **    ##  ###   ##   ##  ##  ##      ## ##      ##   ##   ##       ##        **
 **     #######   #####   ##   #####  ##  ##  ####    ##    #####   ##        **
 **           ##                                                    ##        **
 **                                                                           **
 **                                                ... make the atoms dance   **
 **                                                                           **
 **            Copyright (C) by CP2K developers group (2000 - 2020)           **
 **                      J. Chem. Phys. 152, 194103 (2020)                    **
 **                                                                           **
 *******************************************************************************


 TOTAL NUMBERS AND MAXIMUM NUMBERS

  Total number of            - Atomic kinds:                                   5
                             - Atoms:                                         68
                             - Shell sets:                                   340
                             - Shells:                                       445
                             - Primitive Cartesian functions:                476
                             - Cartesian basis functions:                   1137
                             - Spherical basis functions:                   1067

  Maximum angular momentum of- Orbital basis functions:                        2
                             - Local part of the GTH pseudopotential:          2
                             - Non-local part of the GTH pseudopotential:      0


 SCF PARAMETERS         Density guess:                                   RESTART
                        --------------------------------------------------------
                        max_scf:                                              30
                        max_scf_history:                                       0
                        max_diis:                                              4
                        --------------------------------------------------------
                        eps_scf:                                        1.00E-06
                        eps_scf_history:                                0.00E+00
                        eps_diis:                                       1.00E-01
                        eps_eigval:                                     1.00E-05
                        --------------------------------------------------------
                        level_shift [a.u.]:                                 0.00
                        --------------------------------------------------------
                        Outer loop SCF in use 
                        No variables optimised in outer loop
                        eps_scf                                         1.00E-06
                        max_scf                                               20
                        No outer loop optimization
                        step_size                                       5.00E-01

 *******************************************************************************
 *******************************************************************************
 **                                                                           **
 **             #######  ##     ## ##     ## ##     ##                        **
 **            ##     ## ###   ### ###   ### ###   ###                        **
 **            ##     ## #### #### #### #### #### ####                        **
 **            ##     ## ## ### ## ## ### ## ## ### ##                        **
 **            ##  ## ## ##     ## ##     ## ##     ##                        **
 **            ##    ##  ##     ## ##     ## ##     ##  T.Laino and F.Mohamed **
 **             ##### ## ##     ## ##     ## ##     ##  2005 - 2015           **
 **                                                                           **
 **                                                     Calculation Started.. **
 *******************************************************************************
 *******************************************************************************

 MD_PAR| Molecular dynamics protocol (MD input parameters)
 MD_PAR| Ensemble type                                                       NVE
 MD_PAR| Number of time steps                                                  6
 MD_PAR| Time step [fs]                                                 1.000000
 MD_PAR| Temperature [K]                                              300.000000
 MD_PAR| Temperature tolerance [K]                                      0.000000
 MD_PAR| Print MD information every                                    1 step(s)
 MD_PAR| File type   Print frequency [steps]                          File names
 MD_PAR| Coordinates          1                           CBD_PHY-PBE0-pos-1.xyz
 MD_PAR| Velocities           1                           CBD_PHY-PBE0-vel-1.xyz
 MD_PAR| Energies             1                              CBD_PHY-PBE0-1.ener
 MD_PAR| Dump                20                           CBD_PHY-PBE0-1.restart

 ROT| Rotational analysis information
 ROT| Principal axes and moments of inertia [a.u.]
 ROT|                           1                   2                   3
 ROT| Eigenvalues      1.56283164001E+13   1.56407408488E+13   1.56663418804E+13
 ROT|      x              0.901637047331     -0.018153263569      0.432112362589
 ROT|      y              0.323714777231      0.690893927917     -0.646431994389
 ROT|      z             -0.286808957117      0.722728191915      0.628812040859
 ROT| Number of rotovibrational vectors                                        6

 DOF| Calculation of degrees of freedom
 DOF| Number of atoms                                                     167923
 DOF| Number of intramolecular constraints                                     0
 DOF| Number of intermolecular constraints                                     0
 DOF| Invariants (translations + rotations)                                    3
 DOF| Degrees of freedom                                                  503766

 DOF| Restraints information
 DOF| Number of intramolecular restraints                                      0
 DOF| Number of intermolecular restraints                                      0

 MD_VEL| Velocities initialization
 MD_VEL| Initial temperature [K]                                      300.000000
 MD_VEL| COM velocity            -0.0000000000     0.0000000000     0.0000000000

  Translating the system in order to center the QM fragment in the QM box.

 Number of electrons:                                                        180
 Number of occupied orbitals:                                                 90
 Number of molecular orbitals:                                                90

 Number of orbital functions:                                               1067
 Number of independent orbital functions:                                   1067

 Extrapolation method: initial_guess


 SCF WAVEFUNCTION OPTIMIZATION

  ----------------------------------- OT ---------------------------------------
  Minimizer      : DIIS                : direct inversion
                                         in the iterative subspace
                                         using   7 DIIS vectors
                                         safer DIIS on
  Preconditioner : FULL_ALL            : diagonalization, state selective
  Precond_solver : DEFAULT
  stepsize       :    0.15000000                  energy_gap     :    0.08000000
  eps_taylor     :   0.10000E-15                  max_taylor     :             4
  ----------------------------------- OT ---------------------------------------

  Step     Update method      Time    Convergence         Total energy    Change
  ------------------------------------------------------------------------------
  Decoupling Energy:                                               0.0370647021
  Recoupling Energy:                                              -0.0063741479
     1 OT DIIS     0.15E+00   45.8     0.00129057      -255.9257316527 -2.56E+02
  Decoupling Energy:                                               0.0370576004
  Recoupling Energy:                                              -0.0063740314
     2 OT DIIS     0.15E+00    8.2     0.00057761      -255.9419521969 -1.62E-02
  Decoupling Energy:                                               0.0369596417
  Recoupling Energy:                                              -0.0063730135
     3 OT DIIS     0.15E+00    8.2     0.00038348      -255.9451217312 -3.17E-03
  Decoupling Energy:                                               0.0369795469
  Recoupling Energy:                                              -0.0063732416
     4 OT DIIS     0.15E+00    8.2     0.00009866      -255.9458275763 -7.06E-04
  Decoupling Energy:                                               0.0369716948
  Recoupling Energy:                                              -0.0063731487
     5 OT DIIS     0.15E+00    8.2     0.00003992      -255.9458779680 -5.04E-05
  Decoupling Energy:                                               0.0369737640
  Recoupling Energy:                                              -0.0063731649
     6 OT DIIS     0.15E+00    8.2     0.00001793      -255.9458894164 -1.14E-05
  Decoupling Energy:                                               0.0369741808
  Recoupling Energy:                                              -0.0063731680
     7 OT DIIS     0.15E+00    8.2     0.00000621      -255.9458922932 -2.88E-06
  Decoupling Energy:                                               0.0369727127
  Recoupling Energy:                                              -0.0063731518
     8 OT DIIS     0.15E+00    8.2     0.00000242      -255.9458926323 -3.39E-07
  Decoupling Energy:                                               0.0369731060
  Recoupling Energy:                                              -0.0063731556
     9 OT DIIS     0.15E+00    8.2     0.00000111      -255.9458926816 -4.94E-08
  Decoupling Energy:                                               0.0369728227
  Recoupling Energy:                                              -0.0063731526
    10 OT DIIS     0.15E+00    8.2     0.00000048      -255.9458926918 -1.02E-08

  *** SCF run converged in    10 steps ***


  Electronic density on regular grids:       -179.9999999999        0.0000000001
  Core density on regular grids:              180.9999999999       -0.0000000001
  Total charge density on r-space grids:        1.0000000000
  Total charge density g-space grids:           1.0000000000

  Overlap energy of the core charge distribution:               0.00001951532734
  Self energy of the core charge distribution:               -615.71576003586028
  Core Hamiltonian energy:                                    191.01363234740421
  Hartree energy:                                             248.20663852140137
  Exchange-correlation energy:                                -61.38430758347393
  Hartree-Fock Exchange energy:                               -18.10821017492074
  QM/MM Electrostatic energy:                                   0.04209471828299

  Total energy:                                              -255.94589269183902

  outer SCF iter =    1 RMS gradient =   0.48E-06 energy =       -255.9458926918
  outer SCF loop converged in   1 iterations or   10 steps

  Decoupling Energy:                                               0.0369728028
  Recoupling Energy:                                              -0.0063731523

 ENERGY| Total FORCE_EVAL ( QMMM ) energy [a.u.]:          -1088.110859623981924

 MD_INI| MD initialization
 MD_INI| Potential energy [hartree]                          -0.108811085962E+04
 MD_INI| Total kinetic energy [hartree]                       0.239300084734E+03
 MD_INI| QM kinetic energy [hartree]                          0.106639360339E+00
 MD_INI| Total temperature [K]                                        300.000000
 MD_INI| QM temperature [K]                                           330.137318
 MD_INI| Cell volume [bohr^3]                                 1.137316355424E+07
 MD_INI| Cell volume [ang^3]                                  1.685328937712E+06
 MD_INI| Cell lengths [bohr]      2.24884969E+02  2.24884969E+02  2.24884969E+02
 MD_INI| Cell lengths [ang]       1.19004000E+02  1.19004000E+02  1.19004000E+02
 MD_INI| Cell angles [deg]        9.00000000E+01  9.00000000E+01  9.00000000E+01

  Translating the system in order to center the QM fragment in the QM box.

 Number of electrons:                                                        180
 Number of occupied orbitals:                                                 90
 Number of molecular orbitals:                                                90

 Number of orbital functions:                                               1067
 Number of independent orbital functions:                                   1067

 Extrapolation method: ASPC


 SCF WAVEFUNCTION OPTIMIZATION

  ----------------------------------- OT ---------------------------------------
  Minimizer      : DIIS                : direct inversion
                                         in the iterative subspace
                                         using   7 DIIS vectors
                                         safer DIIS on
  Preconditioner : FULL_ALL            : diagonalization, state selective
  Precond_solver : DEFAULT
  stepsize       :    0.15000000                  energy_gap     :    0.08000000
  eps_taylor     :   0.10000E-15                  max_taylor     :             4
  ----------------------------------- OT ---------------------------------------

  Step     Update method      Time    Convergence         Total energy    Change
  ------------------------------------------------------------------------------
  Decoupling Energy:                                               0.0370014666
  Recoupling Energy:                                              -0.0063734172
     1 OT DIIS     0.15E+00   39.9     0.00075899      -255.7182133354 -2.56E+02
  Decoupling Energy:                                               0.0370082379
  Recoupling Energy:                                              -0.0063735355
     2 OT DIIS     0.15E+00    8.1     0.00032685      -255.7237311671 -5.52E-03
  Decoupling Energy:                                               0.0370087414
  Recoupling Energy:                                              -0.0063735590
     3 OT DIIS     0.15E+00    8.1     0.00019068      -255.7247684899 -1.04E-03
  Decoupling Energy:                                               0.0370199883
  Recoupling Energy:                                              -0.0063736817
     4 OT DIIS     0.15E+00    8.1     0.00006054      -255.7249609229 -1.92E-04
  Decoupling Energy:                                               0.0370216763
  Recoupling Energy:                                              -0.0063737045
     5 OT DIIS     0.15E+00    8.1     0.00001954      -255.7249774875 -1.66E-05
  Decoupling Energy:                                               0.0370210006
  Recoupling Energy:                                              -0.0063736984
     6 OT DIIS     0.15E+00    8.1     0.00000817      -255.7249797459 -2.26E-06
  Decoupling Energy:                                               0.0370221930
  Recoupling Energy:                                              -0.0063737124
     7 OT DIIS     0.15E+00    8.1     0.00000308      -255.7249802079 -4.62E-07
  Decoupling Energy:                                               0.0370222383
  Recoupling Energy:                                              -0.0063737132
     8 OT DIIS     0.15E+00    8.1     0.00000136      -255.7249802852 -7.72E-08
  Decoupling Energy:                                               0.0370224659
  Recoupling Energy:                                              -0.0063737159
     9 OT DIIS     0.15E+00    8.1     0.00000058      -255.7249803009 -1.57E-08

  *** SCF run converged in     9 steps ***


  Electronic density on regular grids:       -180.0000000000        0.0000000000
  Core density on regular grids:              180.9999999999       -0.0000000001
  Total charge density on r-space grids:        0.9999999999
  Total charge density g-space grids:           0.9999999999

  Overlap energy of the core charge distribution:               0.00002422740857
  Self energy of the core charge distribution:               -615.71576003586028
  Core Hamiltonian energy:                                    191.21094926002669
  Hartree energy:                                             248.07774924696210
  Exchange-correlation energy:                                -61.42683515948877
  Hartree-Fock Exchange energy:                               -18.12283152230472
  QM/MM Electrostatic energy:                                   0.25172368236203

  Total energy:                                              -255.72498030089440

  outer SCF iter =    1 RMS gradient =   0.58E-06 energy =       -255.7249803009
  outer SCF loop converged in   1 iterations or    9 steps

  Decoupling Energy:                                               0.0370224945
  Recoupling Energy:                                              -0.0063737164

 ENERGY| Total FORCE_EVAL ( QMMM ) energy [a.u.]:          -1059.962356476061814

 MD| ***************************************************************************
 MD| Step number                                                               1
 MD| Time [fs]                                                          1.000000
 MD| Conserved quantity [hartree]                            -0.841461427262E+03
 MD| ---------------------------------------------------------------------------
 MD|                                          Instantaneous             Averages
 MD| CPU time per MD step [s]                    691.566523           691.566523
 MD| Energy drift per atom [K]           0.138202489215E+02   0.000000000000E+00
 MD| Potential energy [hartree]         -0.105996235648E+04  -0.105996235648E+04
 MD| Total kinetic energy [hartree]      0.218500929214E+03   0.218500929214E+03
 MD| QM kinetic energy [hartree]         0.121347088628E+00   0.121347088628E+00
 MD| Total temperature [K]                       273.925013           273.925013
 MD| QM temperature [K]                          375.669943           375.669943
 MD| ***************************************************************************

  Translating the system in order to center the QM fragment in the QM box.

 Number of electrons:                                                        180
 Number of occupied orbitals:                                                 90
 Number of molecular orbitals:                                                90

 Number of orbital functions:                                               1067
 Number of independent orbital functions:                                   1067

 Extrapolation method: ASPC


 SCF WAVEFUNCTION OPTIMIZATION

  ----------------------------------- OT ---------------------------------------
  Minimizer      : DIIS                : direct inversion
                                         in the iterative subspace
                                         using   7 DIIS vectors
                                         safer DIIS on
  Preconditioner : FULL_ALL            : diagonalization, state selective
  Precond_solver : DEFAULT
  stepsize       :    0.15000000                  energy_gap     :    0.08000000
  eps_taylor     :   0.10000E-15                  max_taylor     :             4
  ----------------------------------- OT ---------------------------------------

  Step     Update method      Time    Convergence         Total energy    Change
  ------------------------------------------------------------------------------
  Decoupling Energy:                                               0.0370781950
  Recoupling Energy:                                              -0.0063743358
     1 OT DIIS     0.15E+00   40.0     0.00029264      -255.3622515555 -2.55E+02
  Decoupling Energy:                                               0.0370714489
  Recoupling Energy:                                              -0.0063742686
     2 OT DIIS     0.15E+00    8.1     0.00012382      -255.3630878499 -8.36E-04
  Decoupling Energy:                                               0.0370747107
  Recoupling Energy:                                              -0.0063743002
     3 OT DIIS     0.15E+00    8.1     0.00005669      -255.3632553110 -1.67E-04
  Decoupling Energy:                                               0.0370720729
  Recoupling Energy:                                              -0.0063742776
     4 OT DIIS     0.15E+00    8.1     0.00001749      -255.3632740734 -1.88E-05
  Decoupling Energy:                                               0.0370725474
  Recoupling Energy:                                              -0.0063742816
     5 OT DIIS     0.15E+00    8.1     0.00000679      -255.3632755928 -1.52E-06
  Decoupling Energy:                                               0.0370729618
  Recoupling Energy:                                              -0.0063742866
     6 OT DIIS     0.15E+00    8.1     0.00000313      -255.3632758488 -2.56E-07
  Decoupling Energy:                                               0.0370729469
  Recoupling Energy:                                              -0.0063742865
     7 OT DIIS     0.15E+00    8.1     0.00000106      -255.3632759095 -6.08E-08
  Decoupling Energy:                                               0.0370730045
  Recoupling Energy:                                              -0.0063742872
     8 OT DIIS     0.15E+00    8.1     0.00000048      -255.3632759197 -1.02E-08

  *** SCF run converged in     8 steps ***


  Electronic density on regular grids:       -180.0000000000       -0.0000000000
  Core density on regular grids:              180.9999999999       -0.0000000001
  Total charge density on r-space grids:        0.9999999998
  Total charge density g-space grids:           0.9999999998

  Overlap energy of the core charge distribution:               0.00005088935729
  Self energy of the core charge distribution:               -615.71576003586028
  Core Hamiltonian energy:                                    191.44417953706272
  Hartree energy:                                             247.94137160357502
  Exchange-correlation energy:                                -61.47332329061756
  Hartree-Fock Exchange energy:                               -18.13880604413877
  QM/MM Electrostatic energy:                                   0.57901142092899

  Total energy:                                              -255.36327591969254

  outer SCF iter =    1 RMS gradient =   0.48E-06 energy =       -255.3632759197
  outer SCF loop converged in   1 iterations or    8 steps

  Decoupling Energy:                                               0.0370730214
  Recoupling Energy:                                              -0.0063742875

 ENERGY| Total FORCE_EVAL ( QMMM ) energy [a.u.]:          -1061.235329276113134

 MD| ***************************************************************************
 MD| Step number                                                               2
 MD| Time [fs]                                                          2.000000
 MD| Conserved quantity [hartree]                            -0.842817775346E+03
 MD| ---------------------------------------------------------------------------
 MD|                                          Instantaneous             Averages
 MD| CPU time per MD step [s]                    330.141095           510.853809
 MD| Energy drift per atom [K]           0.112696731296E+02   0.563483656482E+01
 MD| Potential energy [hartree]         -0.106123532928E+04  -0.106059884288E+04
 MD| Total kinetic energy [hartree]      0.218417553930E+03   0.218459241572E+03
 MD| QM kinetic energy [hartree]         0.111577401225E+00   0.116462244926E+00
 MD| Total temperature [K]                       273.820489           273.872751
 MD| QM temperature [K]                          345.424653           360.547298
 MD| ***************************************************************************

  Translating the system in order to center the QM fragment in the QM box.

 Number of electrons:                                                        180
 Number of occupied orbitals:                                                 90
 Number of molecular orbitals:                                                90

 Number of orbital functions:                                               1067
 Number of independent orbital functions:                                   1067

 Extrapolation method: ASPC


 SCF WAVEFUNCTION OPTIMIZATION

  ----------------------------------- OT ---------------------------------------
  Minimizer      : DIIS                : direct inversion
                                         in the iterative subspace
                                         using   7 DIIS vectors
                                         safer DIIS on
  Preconditioner : FULL_ALL            : diagonalization, state selective
  Precond_solver : DEFAULT
  stepsize       :    0.15000000                  energy_gap     :    0.08000000
  eps_taylor     :   0.10000E-15                  max_taylor     :             4
  ----------------------------------- OT ---------------------------------------

  Step     Update method      Time    Convergence         Total energy    Change
  ------------------------------------------------------------------------------
  Decoupling Energy:                                               0.0371231389
  Recoupling Energy:                                              -0.0063748341
     1 OT DIIS     0.15E+00   40.2     0.00057306      -254.8840284982 -2.55E+02
  Decoupling Energy:                                               0.0371263587
  Recoupling Energy:                                              -0.0063748785
     2 OT DIIS     0.15E+00    8.1     0.00022563      -254.8871537377 -3.13E-03
  Decoupling Energy:                                               0.0371271458
  Recoupling Energy:                                              -0.0063748852
     3 OT DIIS     0.15E+00    8.1     0.00008219      -254.8877090058 -5.55E-04
  Decoupling Energy:                                               0.0371222981
  Recoupling Energy:                                              -0.0063748370
     4 OT DIIS     0.15E+00    8.1     0.00002736      -254.8877591998 -5.02E-05
  Decoupling Energy:                                               0.0371233423
  Recoupling Energy:                                              -0.0063748481
     5 OT DIIS     0.15E+00    8.1     0.00001026      -254.8877629801 -3.78E-06
  Decoupling Energy:                                               0.0371231608
  Recoupling Energy:                                              -0.0063748450
     6 OT DIIS     0.15E+00    8.1     0.00000434      -254.8877635594 -5.79E-07
  Decoupling Energy:                                               0.0371230880
  Recoupling Energy:                                              -0.0063748447
     7 OT DIIS     0.15E+00    8.1     0.00000136      -254.8877636475 -8.81E-08
  Decoupling Energy:                                               0.0371230915
  Recoupling Energy:                                              -0.0063748447
     8 OT DIIS     0.15E+00    8.1     0.00000060      -254.8877636583 -1.08E-08

  *** SCF run converged in     8 steps ***


  Electronic density on regular grids:       -180.0000000003       -0.0000000003
  Core density on regular grids:              180.9999999999       -0.0000000001
  Total charge density on r-space grids:        0.9999999996
  Total charge density g-space grids:           0.9999999996

  Overlap energy of the core charge distribution:               0.00005124428514
  Self energy of the core charge distribution:               -615.71576003586028
  Core Hamiltonian energy:                                    191.49122527766610
  Hartree energy:                                             247.90730533032308
  Exchange-correlation energy:                                -61.48094118726027
  Hartree-Fock Exchange energy:                               -18.14140037482995
  QM/MM Electrostatic energy:                                   1.05175608736913

  Total energy:                                              -254.88776365830705

  outer SCF iter =    1 RMS gradient =   0.60E-06 energy =       -254.8877636583
  outer SCF loop converged in   1 iterations or    8 steps

  Decoupling Energy:                                               0.0371230904
  Recoupling Energy:                                              -0.0063748447

 ENERGY| Total FORCE_EVAL ( QMMM ) energy [a.u.]:          -1082.045341962857265

 MD| ***************************************************************************
 MD| Step number                                                               3
 MD| Time [fs]                                                          3.000000
 MD| Conserved quantity [hartree]                            -0.846392352352E+03
 MD| ---------------------------------------------------------------------------
 MD|                                          Instantaneous             Averages
 MD| CPU time per MD step [s]                    332.150774           451.286131
 MD| Energy drift per atom [K]           0.454777800189E+01   0.527248371051E+01
 MD| Potential energy [hartree]         -0.108204534196E+04  -0.106774767591E+04
 MD| Total kinetic energy [hartree]      0.235652989611E+03   0.224190490918E+03
 MD| QM kinetic energy [hartree]         0.117355398476E+00   0.116759962776E+00
 MD| Total temperature [K]                       295.427797           281.057766
 MD| QM temperature [K]                          363.312349           361.468982
 MD| ***************************************************************************

  Translating the system in order to center the QM fragment in the QM box.

 Number of electrons:                                                        180
 Number of occupied orbitals:                                                 90
 Number of molecular orbitals:                                                90

 Number of orbital functions:                                               1067
 Number of independent orbital functions:                                   1067

 Extrapolation method: ASPC


 SCF WAVEFUNCTION OPTIMIZATION

  ----------------------------------- OT ---------------------------------------
  Minimizer      : DIIS                : direct inversion
                                         in the iterative subspace
                                         using   7 DIIS vectors
                                         safer DIIS on
  Preconditioner : FULL_ALL            : diagonalization, state selective
  Precond_solver : DEFAULT
  stepsize       :    0.15000000                  energy_gap     :    0.08000000
  eps_taylor     :   0.10000E-15                  max_taylor     :             4
  ----------------------------------- OT ---------------------------------------

  Step     Update method      Time    Convergence         Total energy    Change
  ------------------------------------------------------------------------------
  Decoupling Energy:                                               0.0371653923
  Recoupling Energy:                                              -0.0063753268
     1 OT DIIS     0.15E+00   39.9     0.00026742      -254.3372978286 -2.54E+02
  Decoupling Energy:                                               0.0371743657
  Recoupling Energy:                                              -0.0063754111
     2 OT DIIS     0.15E+00    8.1     0.00010732      -254.3379926690 -6.95E-04
  Decoupling Energy:                                               0.0371689368
  Recoupling Energy:                                              -0.0063753550
     3 OT DIIS     0.15E+00    8.1     0.00004048      -254.3381216363 -1.29E-04
  Decoupling Energy:                                               0.0371715481
  Recoupling Energy:                                              -0.0063753820
     4 OT DIIS     0.15E+00    8.2     0.00001299      -254.3381316490 -1.00E-05
  Decoupling Energy:                                               0.0371702618
  Recoupling Energy:                                              -0.0063753693
     5 OT DIIS     0.15E+00    8.1     0.00000553      -254.3381325118 -8.63E-07
  Decoupling Energy:                                               0.0371705164
  Recoupling Energy:                                              -0.0063753713
     6 OT DIIS     0.15E+00    8.2     0.00000190      -254.3381326557 -1.44E-07
  Decoupling Energy:                                               0.0371705500
  Recoupling Energy:                                              -0.0063753719
     7 OT DIIS     0.15E+00    8.1     0.00000064      -254.3381326748 -1.90E-08

  *** SCF run converged in     7 steps ***


  Electronic density on regular grids:       -179.9999999999        0.0000000001
  Core density on regular grids:              180.9999999999       -0.0000000001
  Total charge density on r-space grids:        1.0000000000
  Total charge density g-space grids:           1.0000000000

  Overlap energy of the core charge distribution:               0.00002358448479
  Self energy of the core charge distribution:               -615.71576003586028
  Core Hamiltonian energy:                                    191.34731006783244
  Hartree energy:                                             247.97610574792196
  Exchange-correlation energy:                                -61.44936535495078
  Hartree-Fock Exchange energy:                               -18.13041710483819
  QM/MM Electrostatic energy:                                   1.63397042063188

  Total energy:                                              -254.33813267477819

  outer SCF iter =    1 RMS gradient =   0.64E-06 energy =       -254.3381326748
  outer SCF loop converged in   1 iterations or    7 steps

  Decoupling Energy:                                               0.0371704702
  Recoupling Energy:                                              -0.0063753710

 ENERGY| Total FORCE_EVAL ( QMMM ) energy [a.u.]:          -1079.714054176402442

 MD| ***************************************************************************
 MD| Step number                                                               4
 MD| Time [fs]                                                          4.000000
 MD| Conserved quantity [hartree]                            -0.842113598655E+03
 MD| ---------------------------------------------------------------------------
 MD|                                          Instantaneous             Averages
 MD| CPU time per MD step [s]                    325.557692           419.854021
 MD| Energy drift per atom [K]           0.125938583013E+02   0.710282735820E+01
 MD| Potential energy [hartree]         -0.107971405418E+04  -0.107073927047E+04
 MD| Total kinetic energy [hartree]      0.237600455521E+03   0.227542982069E+03
 MD| QM kinetic energy [hartree]         0.148327412000E+00   0.124651825082E+00
 MD| Total temperature [K]                       297.869250           285.260637
 MD| QM temperature [K]                          459.196434           385.900845
 MD| ***************************************************************************

  Translating the system in order to center the QM fragment in the QM box.

 Number of electrons:                                                        180
 Number of occupied orbitals:                                                 90
 Number of molecular orbitals:                                                90

 Number of orbital functions:                                               1067
 Number of independent orbital functions:                                   1067

 Extrapolation method: ASPC


 SCF WAVEFUNCTION OPTIMIZATION

  ----------------------------------- OT ---------------------------------------
  Minimizer      : DIIS                : direct inversion
                                         in the iterative subspace
                                         using   7 DIIS vectors
                                         safer DIIS on
  Preconditioner : FULL_ALL            : diagonalization, state selective
  Precond_solver : DEFAULT
  stepsize       :    0.15000000                  energy_gap     :    0.08000000
  eps_taylor     :   0.10000E-15                  max_taylor     :             4
  ----------------------------------- OT ---------------------------------------

  Step     Update method      Time    Convergence         Total energy    Change
  ------------------------------------------------------------------------------
  Decoupling Energy:                                               0.0372104882
  Recoupling Energy:                                              -0.0063758487
     1 OT DIIS     0.15E+00   40.0     0.00032107      -253.7449353164 -2.54E+02
  Decoupling Energy:                                               0.0372070367
  Recoupling Energy:                                              -0.0063758001
     2 OT DIIS     0.15E+00    8.1     0.00013148      -253.7458507545 -9.15E-04
  Decoupling Energy:                                               0.0372095611
  Recoupling Energy:                                              -0.0063758235
     3 OT DIIS     0.15E+00    8.1     0.00006238      -253.7460089590 -1.58E-04
  Decoupling Energy:                                               0.0372087007
  Recoupling Energy:                                              -0.0063758143
     4 OT DIIS     0.15E+00    8.1     0.00002452      -253.7460400191 -3.11E-05
  Decoupling Energy:                                               0.0372096145
  Recoupling Energy:                                              -0.0063758219
     5 OT DIIS     0.15E+00    8.1     0.00000528      -253.7460425798 -2.56E-06
  Decoupling Energy:                                               0.0372093074
  Recoupling Energy:                                              -0.0063758193
     6 OT DIIS     0.15E+00    8.2     0.00000252      -253.7460427244 -1.45E-07
  Decoupling Energy:                                               0.0372092983
  Recoupling Energy:                                              -0.0063758191
     7 OT DIIS     0.15E+00    8.1     0.00000088      -253.7460427568 -3.24E-08

  *** SCF run converged in     7 steps ***


  Electronic density on regular grids:       -180.0000000000       -0.0000000000
  Core density on regular grids:              180.9999999999       -0.0000000001
  Total charge density on r-space grids:        0.9999999999
  Total charge density g-space grids:           0.9999999999

  Overlap energy of the core charge distribution:               0.00001841787655
  Self energy of the core charge distribution:               -615.71576003586028
  Core Hamiltonian energy:                                    191.22471997748275
  Hartree energy:                                             248.04796547462217
  Exchange-correlation energy:                                -61.41798443884640
  Hartree-Fock Exchange energy:                               -18.11952071908944
  QM/MM Electrostatic energy:                                   2.23451856698342

  Total energy:                                              -253.74604275683129

  outer SCF iter =    1 RMS gradient =   0.88E-06 energy =       -253.7460427568
  outer SCF loop converged in   1 iterations or    7 steps

  Decoupling Energy:                                               0.0372093305
  Recoupling Energy:                                              -0.0063758194

 ENERGY| Total FORCE_EVAL ( QMMM ) energy [a.u.]:          -1094.307012037731738

 MD| ***************************************************************************
 MD| Step number                                                               5
 MD| Time [fs]                                                          5.000000
 MD| Conserved quantity [hartree]                            -0.848389417811E+03
 MD| ---------------------------------------------------------------------------
 MD|                                          Instantaneous             Averages
 MD| CPU time per MD step [s]                    323.757482           400.634713
 MD| Energy drift per atom [K]           0.792350560448E+00   0.584073199865E+01
 MD| Potential energy [hartree]         -0.109430701204E+04  -0.107545281879E+04
 MD| Total kinetic energy [hartree]      0.245917594226E+03   0.231217904501E+03
 MD| QM kinetic energy [hartree]         0.157564021924E+00   0.131234264450E+00
 MD| Total temperature [K]                       308.296081           289.867726
 MD| QM temperature [K]                          487.791407           406.278957
 MD| ***************************************************************************

  Translating the system in order to center the QM fragment in the QM box.

 Number of electrons:                                                        180
 Number of occupied orbitals:                                                 90
 Number of molecular orbitals:                                                90

 Number of orbital functions:                                               1067
 Number of independent orbital functions:                                   1067

 Extrapolation method: ASPC


 SCF WAVEFUNCTION OPTIMIZATION

  ----------------------------------- OT ---------------------------------------
  Minimizer      : DIIS                : direct inversion
                                         in the iterative subspace
                                         using   7 DIIS vectors
                                         safer DIIS on
  Preconditioner : FULL_ALL            : diagonalization, state selective
  Precond_solver : DEFAULT
  stepsize       :    0.15000000                  energy_gap     :    0.08000000
  eps_taylor     :   0.10000E-15                  max_taylor     :             4
  ----------------------------------- OT ---------------------------------------

  Step     Update method      Time    Convergence         Total energy    Change
  ------------------------------------------------------------------------------
  Decoupling Energy:                                               0.0372437579
  Recoupling Energy:                                              -0.0063762139
     1 OT DIIS     0.15E+00   40.2     0.00048925      -253.1925225703 -2.53E+02
  Decoupling Energy:                                               0.0372420591
  Recoupling Energy:                                              -0.0063762278
     2 OT DIIS     0.15E+00    8.1     0.00019204      -253.1946673949 -2.14E-03
  Decoupling Energy:                                               0.0372395370
  Recoupling Energy:                                              -0.0063761937
     3 OT DIIS     0.15E+00    8.2     0.00008088      -253.1950237749 -3.56E-04
  Decoupling Energy:                                               0.0372399306
  Recoupling Energy:                                              -0.0063761993
     4 OT DIIS     0.15E+00    8.2     0.00002289      -253.1950826962 -5.89E-05
  Decoupling Energy:                                               0.0372387793
  Recoupling Energy:                                              -0.0063761869
     5 OT DIIS     0.15E+00    8.2     0.00000852      -253.1950853277 -2.63E-06
  Decoupling Energy:                                               0.0372394785
  Recoupling Energy:                                              -0.0063761928
     6 OT DIIS     0.15E+00    8.2     0.00000292      -253.1950856950 -3.67E-07
  Decoupling Energy:                                               0.0372392315
  Recoupling Energy:                                              -0.0063761905
     7 OT DIIS     0.15E+00    8.2     0.00000086      -253.1950857369 -4.19E-08

  *** SCF run converged in     7 steps ***


  Electronic density on regular grids:       -180.0000000000       -0.0000000000
  Core density on regular grids:              180.9999999999       -0.0000000001
  Total charge density on r-space grids:        0.9999999999
  Total charge density g-space grids:           0.9999999999

  Overlap energy of the core charge distribution:               0.00001843293067
  Self energy of the core charge distribution:               -615.71576003586028
  Core Hamiltonian energy:                                    191.21894926971191
  Hartree energy:                                             248.05853163301600
  Exchange-correlation energy:                                -61.40902671078803
  Hartree-Fock Exchange energy:                               -18.11645317977786
  QM/MM Electrostatic energy:                                   2.76865485389224

  Total energy:                                              -253.19508573687534

  outer SCF iter =    1 RMS gradient =   0.86E-06 energy =       -253.1950857369
  outer SCF loop converged in   1 iterations or    7 steps

  Decoupling Energy:                                               0.0372392195
  Recoupling Energy:                                              -0.0063761903

 ENERGY| Total FORCE_EVAL ( QMMM ) energy [a.u.]:          -1057.339966082421142

 MD| ***************************************************************************
 MD| Step number                                                               6
 MD| Time [fs]                                                          6.000000
 MD| Conserved quantity [hartree]                            -0.842900325681E+03
 MD| ---------------------------------------------------------------------------
 MD|                                          Instantaneous             Averages
 MD| CPU time per MD step [s]                    322.868935           387.673750
 MD| Energy drift per atom [K]           0.111144394631E+02   0.671968324272E+01
 MD| Potential energy [hartree]         -0.105733996608E+04  -0.107243401000E+04
 MD| Total kinetic energy [hartree]      0.214439640401E+03   0.228421527151E+03
 MD| QM kinetic energy [hartree]         0.141132022983E+00   0.132883890873E+00
 MD| Total temperature [K]                       268.833553           286.362030
 MD| QM temperature [K]                          436.920734           411.385920
 MD| ***************************************************************************

 -------------------------------------------------------------------------------
 -                                                                             -
 -                                DBCSR STATISTICS                             -
 -                                                                             -
 -------------------------------------------------------------------------------
 COUNTER                                    TOTAL       BLAS       SMM       ACC
 flops     9 x    26 x    26              2810808       0.0%    100.0%      0.0%
 flops    22 x    26 x    26              7287280       0.0%    100.0%      0.0%
 flops     9 x    32 x    32              8515584       0.0%    100.0%      0.0%
 flops    26 x    26 x    26             13709280       0.0%    100.0%      0.0%
 flops    22 x    32 x    32             22077440       0.0%    100.0%      0.0%
 flops    26 x    26 x    32             33745920       0.0%    100.0%      0.0%
 flops    26 x    32 x    26             33745920       0.0%    100.0%      0.0%
 flops    32 x    26 x    26             33745920       0.0%    100.0%      0.0%
 flops    26 x    26 x   182             56840784       0.0%    100.0%      0.0%
 flops   182 x    26 x    26             68897920       0.0%    100.0%      0.0%
 flops    32 x    32 x    26             83066880       0.0%    100.0%      0.0%
 flops    26 x    32 x    32             83066880       0.0%    100.0%      0.0%
 flops    32 x    26 x    32             83066880       0.0%    100.0%      0.0%
 flops    26 x    32 x   182            139915776       0.0%    100.0%      0.0%
 flops    32 x    26 x   182            139915776       0.0%    100.0%      0.0%
 flops     9 x     9 x    26            165405240       0.0%    100.0%      0.0%
 flops   182 x    26 x    32            169594880       0.0%    100.0%      0.0%
 flops   182 x    32 x    26            169594880       0.0%    100.0%      0.0%
 flops    32 x    32 x    32            204472320       0.0%    100.0%      0.0%
 flops   182 x    26 x   182            217028448       0.0%    100.0%      0.0%
 flops    26 x    26 x   177            276396120       0.0%    100.0%      0.0%
 flops   177 x    26 x    26            335025600       0.0%    100.0%      0.0%
 flops    32 x    32 x   182            344408064       0.0%    100.0%      0.0%
 flops     9 x     9 x    32            407151360       0.0%    100.0%      0.0%
 flops    22 x     9 x    26            415855440       0.0%    100.0%      0.0%
 flops     9 x    22 x    26            416576160       0.0%    100.0%      0.0%
 flops   182 x    32 x    32            417464320       0.0%    100.0%      0.0%
 flops   182 x    32 x   182            534223872       0.0%    100.0%      0.0%
 flops    26 x    32 x   177            680359680       0.0%    100.0%      0.0%
 flops    32 x    26 x   177            680359680       0.0%    100.0%      0.0%
 flops     9 x    26 x     9            802701900       0.0%    100.0%      0.0%
 flops   177 x    32 x    26            824678400       0.0%    100.0%      0.0%
 flops   177 x    26 x    32            824678400       0.0%    100.0%      0.0%
 flops    22 x     9 x    32           1023644160       0.0%    100.0%      0.0%
 flops     9 x    22 x    32           1025418240       0.0%    100.0%      0.0%
 flops   182 x    26 x   177           1055330640       0.0%    100.0%      0.0%
 flops   177 x    26 x   182           1055330640       0.0%    100.0%      0.0%
 flops    22 x    22 x    26           1109908800       0.0%    100.0%      0.0%
 flops    32 x    32 x   177           1674731520       0.0%    100.0%      0.0%
 flops     9 x    32 x     9           1975881600       0.0%    100.0%      0.0%
 flops   177 x    32 x    32           2029977600       0.0%    100.0%      0.0%
 flops    22 x    26 x     9           2081079000       0.0%    100.0%      0.0%
 flops     9 x    26 x    22           2081079000       0.0%    100.0%      0.0%
 flops   177 x    32 x   182           2597736960       0.0%    100.0%      0.0%
 flops   182 x    32 x   177           2597736960       0.0%    100.0%      0.0%
 flops    22 x    22 x    32           2732083200       0.0%    100.0%      0.0%
 flops     9 x    32 x    22           5122656000       0.0%    100.0%      0.0%
 flops    22 x    32 x     9           5122656000       0.0%    100.0%      0.0%
 flops   177 x    26 x   177           5131690200       0.0%    100.0%      0.0%
 flops    22 x    26 x    22           5395390000       0.0%    100.0%      0.0%
 flops   177 x    32 x   177          12631852800       0.0%    100.0%      0.0%
 flops    22 x    32 x    22          13280960000       0.0%    100.0%      0.0%
 flops inhomo. stacks                           0       0.0%      0.0%      0.0%
 flops total                        78.421527E+09       0.0%    100.0%      0.0%
 flops max/rank                      4.721072E+09       0.0%    100.0%      0.0%
 matmuls inhomo. stacks                         0       0.0%      0.0%      0.0%
 matmuls total                            2973420       0.0%    100.0%      0.0%
 number of processed stacks                156774       0.0%    100.0%      0.0%
 average stack size                                     0.0      19.0       0.0
 marketing flops                    85.671182E+09
 -------------------------------------------------------------------------------
 # multiplications                           1286
 max memory usage/rank               2.450629E+09
 # max total images/rank                        1
 # max 3D layers                                1
 # MPI messages exchanged                  462960
 MPI messages size (bytes):
  total size                        18.622464E+09
  min size                           0.000000E+00
  max size                         264.992000E+03
  average size                      40.224781E+03
 MPI breakdown and total messages size (bytes):
             size <=      128              253875                        0
       128 < size <=     8192               47805                344202720
      8192 < size <=    32768                   0                        0
     32768 < size <=   131072              107100               4571028000
    131072 < size <=  4194304               54180              13707407560
   4194304 < size <= 16777216                   0                        0
  16777216 < size                               0                        0
 -------------------------------------------------------------------------------
 -                                                                             -
 -                      DBCSR MESSAGE PASSING PERFORMANCE                      -
 -                                                                             -
 -------------------------------------------------------------------------------
 ROUTINE             CALLS      AVE VOLUME [Bytes]
 MP_Bcast               53                     12.
 MP_Allreduce         6854                      8.
 MP_Alltoall          5344                  12190.
 MP_ISend            30836                  20564.
 MP_IRecv            30836                  19754.
 -------------------------------------------------------------------------------

 -------------------------------------------------------------------------------
 -                                                                             -
 -                                GRID STATISTICS                              -
 -                                                                             -
 -------------------------------------------------------------------------------
 LP    KERNEL             BACKEND                              COUNT     PERCENT
 2     collocate ortho    REF                                1126269      19.13%
 2     integrate ortho    REF                                1106014      18.79%
 1     collocate ortho    REF                                 943978      16.04%
 1     integrate ortho    REF                                 870340      14.79%
 3     integrate ortho    REF                                 570062       9.69%
 3     collocate ortho    REF                                 500530       8.50%
 0     collocate ortho    REF                                 281245       4.78%
 0     integrate ortho    REF                                 249988       4.25%
 4     integrate ortho    REF                                 121240       2.06%
 4     collocate ortho    REF                                  73823       1.25%
 0     collocate general  REF                                  17136       0.29%
 1     integrate general  REF                                  17136       0.29%
 5     integrate ortho    REF                                   8201       0.14%
 -------------------------------------------------------------------------------

 MEMORY| Estimated peak process memory [MiB]                                2338

 -------------------------------------------------------------------------------
 -                                                                             -
 -                         MESSAGE PASSING PERFORMANCE                         -
 -                                                                             -
 -------------------------------------------------------------------------------

 ROUTINE             CALLS      AVE VOLUME [Bytes]
 MP_Group                8
 MP_Bcast             6921               10597646.
 MP_Allreduce         2494                1647960.
 MP_Sync               395
 MP_Alltoall          1344               31986371.
 MP_ISendRecv        14455                 104200.
 MP_Wait             20930
 MP_ISend             5299                 956576.
 MP_IRecv             5292                 956796.
 MP_Recv                35                 128040.
 -------------------------------------------------------------------------------


 -------------------------------------------------------------------------------
 -                                                                             -
 -                           R E F E R E N C E S                               -
 -                                                                             -
 -------------------------------------------------------------------------------
 
 CP2K version 8.1, the CP2K developers group (2020).
 CP2K is freely available from https://www.cp2k.org/ .

 Kuehne,Thomas D.; Iannuzzi,Marcella; Del Ben,Mauro;
 Rybkin,Vladimir V.; Seewald,Patrick; Stein,Frederick; Laino,Teodoro;
 Khaliullin,Rustam Z.; Schuett,Ole; Schiffmann,Florian; Golze,Dorothea;
 Wilhelm,Jan; Chulkov,Sergey; Bani-Hashemian,Mohammad Hossein;
 Weber,Valery; Borstnik,Urban; Taillefumier,Mathieu;
 Jakobovits,Alice Shoshana; Lazzaro,Alfio; Pabst,Hans; Mueller,Tiziano;
 Schade,Robert; Guidon,Manuel; Andermatt,Samuel; Holmberg,Nico;
 Schenter,Gregory K.; Hehn,Anna; Bussy,Augustin; Belleflamme,Fabian;
 Tabacchi,Gloria; Gloess,Andreas; Lass,Michael; Bethune,Iain;
 Mundy,Christopher J.; Plessl,Christian; Watkins,Matt;
 VandeVondele,Joost; Krack,Matthias; Hutter,Juerg. 
 The Journal of Chemical Physics, 152 (19), (2020). 
 CP2K: An electronic structure and molecular dynamics software package -
 Quickstep: Efficient and accurate electronic structure calculations.
 https://doi.org/10.1063/5.0007045

 Schuett, Ole; Messmer, Peter; Hutter, Juerg; VandeVondele, Joost. 
 Electronic Structure Calculations on Graphics Processing Units, John
 Wiley & Sons, Ltd, 173-190 (2016). 
 GPU-Accelerated Sparse Matrix-Matrix Multiplication for
 Linear Scaling Density Functional Theory.
 https://doi.org/10.1002/9781118670712.ch8

 Borstnik, U; VandeVondele, J; Weber, V; Hutter, J. 
 PARALLEL COMPUTING, 40 (5-6), 47-58 (2014). 
 Sparse matrix multiplication: The distributed block-compressed sparse
 row library.
 https://doi.org/10.1016/j.parco.2014.03.012

 Hutter, J; Iannuzzi, M; Schiffmann, F; VandeVondele, J. 
 WIREs Comput Mol Sci., 4 (1), 15-25 (2014). 
 CP2K: atomistic simulations of condensed matter systems.
 https://doi.org/10.1002/wcms.1159

 Marek, A; Blum, V; Johanni, R; Havu, V; Lang, B; Auckenthaler, T;
 Heinecke, A; Bungartz, H; Lederer, H. 
 Journal of Physics: Condensed Matter, 26 (21), (2014). 
 The ELPA library: scalable parallel eigenvalue solutions for
 electronic structure
 theory and computational science.
 https://doi.org/10.1088/0953-8984/26/21/213201

 Guidon, M; Hutter, J; VandeVondele, J. 
 JOURNAL OF CHEMICAL THEORY AND COMPUTATION, 5 (11), 3010-3021 (2009). 
 Robust Periodic Hartree-Fock Exchange for Large-Scale Simulations Using
 Gaussian Basis Sets.
 https://doi.org/10.1021/ct900494g

 Guidon, M; Schiffmann, F; Hutter, J; VandeVondele, J. 
 JOURNAL OF CHEMICAL PHYSICS, 128 (21), 214104 (2008). 
 Ab initio molecular dynamics using hybrid density functionals.
 https://doi.org/10.1063/1.2931945

 Kuhne, TD; Krack, M; Mohamed, FR; Parrinello, M. 
 PHYSICAL REVIEW LETTERS, 98 (6), 066401 (2007). 
 Efficient and accurate Car-Parrinello-like approach to
 Born-Oppenheimer molecular dynamics.
 https://doi.org/10.1103/PhysRevLett.98.066401

 Laino, T; Mohamed, F; Laio, A; Parrinello, M. 
 JOURNAL OF CHEMICAL THEORY AND COMPUTATION, 2 (5), 1370-1378 (2006). 
 An efficient linear-scaling electrostatic coupling for treating
 periodic boundary conditions in QM/MM simulations.
 https://doi.org/10.1021/ct6001169

 Laino, T; Mohamed, F; Laio, A; Parrinello, M. 
 JOURNAL OF CHEMICAL THEORY AND COMPUTATION, 1 (6), 1176-1184 (2005). 
 An efficient real space multigrid QM/MM electrostatic coupling.
 https://doi.org/10.1021/ct050123f

 Krack, M. 
 THEORETICAL CHEMISTRY ACCOUNTS, 114 (1-3), 145-152 (2005). 
 Pseudopotentials for H to Kr optimized for gradient-corrected
 exchange-correlation functionals.
 https://doi.org/10.1007/s00214-005-0655-y

 VandeVondele, J; Krack, M; Mohamed, F; Parrinello, M; Chassaing, T;
 Hutter, J. COMPUTER PHYSICS COMMUNICATIONS, 167 (2), 103-128 (2005). 
 QUICKSTEP: Fast and accurate density functional calculations using a
 mixed Gaussian and plane waves approach.
 https://doi.org/10.1016/j.cpc.2004.12.014

 Frigo, M; Johnson, SG. 
 PROCEEDINGS OF THE IEEE, 93 (2), 216-231 (2005). 
 The design and implementation of FFTW3.
 https://doi.org/10.1109/JPROC.2004.840301

 Kolafa, J. 
 JOURNAL OF COMPUTATIONAL CHEMISTRY, 25 (3), 335-342 (2004). 
 Time-reversible always stable predictor-corrector method for molecular dynamics of polarizable molecules.
 https://doi.org/10.1002/jcc.10385

 VandeVondele, J; Hutter, J. 
 JOURNAL OF CHEMICAL PHYSICS, 118 (10), 4365-4369 (2003). 
 An efficient orbital transformation method for electronic structure
 calculations.
 https://doi.org/10.1063/1.1543154

 Hartwigsen, C; Goedecker, S; Hutter, J. 
 PHYSICAL REVIEW B, 58 (7), 3641-3662 (1998). 
 Relativistic separable dual-space Gaussian pseudopotentials from H to Rn.
 https://doi.org/10.1103/PhysRevB.58.3641

 Lippert, G; Hutter, J; Parrinello, M. 
 MOLECULAR PHYSICS, 92 (3), 477-487 (1997). 
 A hybrid Gaussian and plane wave density functional scheme.
 https://doi.org/10.1080/002689797170220

 Perdew, JP; Burke, K; Ernzerhof, M. 
 PHYSICAL REVIEW LETTERS, 77 (18), 3865-3868 (1996). 
 Generalized gradient approximation made simple.
 https://doi.org/10.1103/PhysRevLett.77.3865

 Goedecker, S; Teter, M; Hutter, J. 
 PHYSICAL REVIEW B, 54 (3), 1703-1710 (1996). 
 Separable dual-space Gaussian pseudopotentials.
 https://doi.org/10.1103/PhysRevB.54.1703

 ESSMANN, U; PERERA, L; BERKOWITZ, ML; DARDEN, T; LEE, H; PEDERSEN, LG. 
 JOURNAL OF CHEMICAL PHYSICS, 103 (19), 8577-8593 (1995). 
 A SMOOTH PARTICLE MESH EWALD METHOD.
 https://doi.org/10.1063/1.470117

 BLOCHL, PE. 
 JOURNAL OF CHEMICAL PHYSICS, 103 (17), 7422-7428 (1995). 
 ELECTROSTATIC DECOUPLING OF PERIODIC IMAGES OF PLANE-WAVE-EXPANDED
 DENSITIES AND DERIVED ATOMIC POINT CHARGES.
 https://doi.org/10.1063/1.470314


 -------------------------------------------------------------------------------
 -                                                                             -
 -                                T I M I N G                                  -
 -                                                                             -
 -------------------------------------------------------------------------------
 SUBROUTINE                       CALLS  ASD         SELF TIME        TOTAL TIME
                                MAXIMUM       AVERAGE  MAXIMUM  AVERAGE  MAXIMUM
 CP2K                                 1  1.0    0.613    0.656 2389.224 2389.225
 qs_mol_dyn_low                       1  2.0    0.020    0.024 2327.355 2329.399
 velocity_verlet                      6  3.0    0.098    0.100 1972.551 1972.660
 qs_forces                            7  3.9    0.034    0.035 1603.414 1603.432
 rebuild_ks_matrix                   63  8.5    0.000    0.000 1527.662 1527.677
 qs_ks_build_kohn_sham_matrix        63  9.5    0.060    0.062 1527.662 1527.677
 hfx_ks_matrix                       63 10.5    0.002    0.002 1346.124 1346.125
 qs_ks_update_qs_env_forces           7  4.9    0.000    0.000  898.839  898.841
 derivatives_four_center              7  8.9    0.015    0.370  847.577  847.577
 derivatives_four_center_main         7  9.9    0.002    0.003  846.438  846.438
 derivatives_four_center_bin        451 10.9  787.525  846.435  787.525  846.435
 qs_energies                          7  4.9    0.001    0.001  703.844  703.862
 scf_env_do_scf                       7  5.9    0.000    0.001  693.145  693.145
 qs_ks_update_qs_env                 63  7.8    0.001    0.001  628.833  628.846
 integrate_four_center               63 11.5    0.324    0.680  498.536  498.537
 integrate_four_center_main          63 12.5    0.022    0.023  480.400  486.860
 integrate_four_center_bin         4032 13.5  480.378  486.838  480.378  486.838
 qmmm_forces                          7  3.9    0.094    0.102  418.244  418.248
 qmmm_forces_with_gaussian            7  4.9    0.116    0.152  411.451  416.148
 scf_env_do_scf_inner_loop           56  6.8    0.002    0.005  407.276  407.291
 qmmm_force_with_gaussian_low         7  5.9    0.000    0.000  338.785  343.906
 qmmm_forces_gaussian_low_R           7  6.9    0.000    0.000  289.538  294.487
 qmmm_forces_with_gaussian_LG         7  7.9  289.538  294.487  289.538  294.487
 qmmm_el_coupling                     7  3.9    0.000    0.000  289.631  290.258
 qmmm_elec_with_gaussian              7  4.9    0.038    0.049  289.601  290.226
 init_scf_loop                        7  6.9    0.000    0.000  285.850  285.851
 qmmm_elec_with_gaussian_low          7  5.9    0.000    0.000  226.136  230.548
 qmmm_elec_gaussian_low_R             7  6.9    0.000    0.000  196.604  200.746
 qmmm_elec_with_gaussian_LG           7  7.9  196.604  200.746  196.604  200.746
 pw_transfer                       1337 12.0    0.104    0.132  136.578  142.414
 fft_wrap_pw1pw2                   1113 13.1    0.017    0.019  134.161  140.002
 fft_wrap_pw1pw2_200                707 14.4   11.372   11.922  131.190  137.267
 fft3d_ps                          1113 15.1   66.948   69.506  100.950  106.805
 qs_vxc_create                       63 10.5    0.002    0.002  105.083  105.117
 xc_vxc_pw_create                    63 11.5    0.720    0.810  105.082  105.115
 mp_sum_lv                           73  4.4   58.912   68.681   58.912   68.681
 qs_rho_update_rho                   63  7.9    0.000    0.000   68.623   68.638
 calculate_rho_elec                  63  8.9    0.289    0.332   68.622   68.638
 density_rs2pw                       63  9.9    0.005    0.006   60.947   64.322
 pw_restrict_s3                      21  5.9   24.877   25.183   62.469   63.165
 qmmm_env_create                      1  2.0   16.313   17.218   59.181   59.192
 xc_rho_set_and_dset_create          63 12.5    0.598    0.637   49.084   55.608
 sum_up_and_integrate                63 10.5    0.369    0.385   53.226   53.271
 integrate_v_rspace                  63 11.5    0.003    0.003   52.857   52.930
 rs_pw_transfer                     546 11.8    0.011    0.013   48.781   52.140
 qmmm_forces_gaussian_low_G           7  6.9   49.246   51.104   49.246   51.104
 qmmm_elec_with_gaussian:spline       7  5.9    0.000    0.000   47.308   47.946
 pw_prolongate_s3                    21  6.9   18.767   19.120   47.308   47.946
 -------------------------------------------------------------------------------

 The number of warnings for this run is : 0
 
 -------------------------------------------------------------------------------
  **** **** ******  **  PROGRAM ENDED AT                 2021-04-19 19:40:12.040
 ***** ** ***  *** **   PROGRAM RAN ON                                    r1i1n6
 **    ****   ******    PROGRAM RAN BY                                    hollyj
 ***** **    ** ** **   PROGRAM PROCESS ID                                 59418
  **** **  *******  **  PROGRAM STOPPED IN /lustre/home/w68/hollyj/CP2K/Cirrus/C
                                           PU/cp2kMD/CBD_PHY-PBE0/6STEPS/1NODES/
                                           36CPN/1THREADS
