 DBCSR| CPU Multiplication driver                                           XSMM
 DBCSR| Multrec recursion limit                                              512
 DBCSR| Multiplication stack size                                          30000
 DBCSR| Maximum elements for images                                    UNLIMITED
 DBCSR| Multiplicative factor virtual images                                   1
 DBCSR| Use multiplication densification                                       F
 DBCSR| Multiplication size stacks                                             3
 DBCSR| Use memory pool for CPU allocation                                     F
 DBCSR| Number of 3D layers                                               SINGLE
 DBCSR| Use MPI memory allocation                                              F
 DBCSR| Use RMA algorithm                                                      F
 DBCSR| Use Communication thread                                               T
 DBCSR| Communication thread load                                             53
 DBCSR| MPI: My node id                                                        0
 DBCSR| MPI: Number of nodes                                                  16
 DBCSR| OMP: Current number of threads                                        10
 DBCSR| OMP: Max number of threads                                            10
 DBCSR| ACC: Number of devices/node                                            4
 DBCSR| ACC: Number of priority stack-buffers                                 40
 DBCSR| ACC: Number of posterior stack-buffers                                80
 DBCSR| ACC: Number of priority streams                                        4
 DBCSR| ACC: Number of posterior streams                                       4
 DBCSR| ACC: Avoid driver after busy                                           F
 DBCSR| ACC: Process inhomogeneous stacks                                      T
 DBCSR| ACC: Min. flop for processing                                          0
 DBCSR| ACC: Min. flop for sorting                                          4000
 DBCSR| ACC: Number of binning bins                                         4096
 DBCSR| ACC: Size of binning bins                                             16
 DBCSR| Split modifier for TAS multiplication algorithm                  1.0E+00


  **** **** ******  **  PROGRAM STARTED AT               2021-07-23 22:47:42.924
 ***** ** ***  *** **   PROGRAM STARTED ON                                r2i5n2
 **    ****   ******    PROGRAM STARTED BY                                hollyj
 ***** **    ** ** **   PROGRAM PROCESS ID                                 13684
  **** **  *******  **  PROGRAM STARTED IN /lustre/home/w68/hollyj/CP2K/Cirrus/G
                                           PU/cp2kMD/CBD_PHY/1STEPS/4NODES/36CPN
                                           /10THREADS

 CP2K| version string:                                          CP2K version 8.2
 CP2K| source code revision number:                                  git:310b7ab
 CP2K| cp2kflags: omp libint fftw3 libxc elpa parallel mpi3 scalapack cosma pw_c
 CP2K|            uda xsmm cuda_profiling dbcsr_acc spglib mkl grid_cuda
 CP2K| is freely available from                            https://www.cp2k.org/
 CP2K| Program compiled at                          Thu Jul 22 18:07:58 BST 2021
 CP2K| Program compiled on                                                r2i5n7
 CP2K| Program compiled for                                           Cirrus-gcc
 CP2K| Data directory path       /lustre/home/w68/hollyj/CP2K/v8.2/cp2k-8.2/data
 CP2K| Input file name                                          CBD_PHY-cp2k.inp

 GLOBAL| Force Environment number                                              1
 GLOBAL| Basis set file name                                        BASIS_MOLOPT
 GLOBAL| Potential file name                                           POTENTIAL
 GLOBAL| MM Potential file name                                     MM_POTENTIAL
 GLOBAL| Coordinate file name                                        CBD_PHY.pdb
 GLOBAL| Method name                                                        CP2K
 GLOBAL| Project name                                                CBD_PHY-PBE
 GLOBAL| Run type                                                             MD
 GLOBAL| FFT library                                                       FFTW3
 GLOBAL| Diagonalization library                                            ELPA
 GLOBAL| Minimum number of eigenvectors for ELPA usage                        16
 GLOBAL| Orthonormality check for eigenvectors                          DISABLED
 GLOBAL| Matrix multiplication library                                     COSMA
 GLOBAL| All-to-all communication in single precision                          F
 GLOBAL| FFTs using library dependent lengths                                  F
 GLOBAL| Grid backend                                                       AUTO
 GLOBAL| Global print level                                                  LOW
 GLOBAL| MPI I/O enabled                                                       T
 GLOBAL| Total number of message passing processes                            16
 GLOBAL| Number of threads for this process                                   10
 GLOBAL| This output is from process                                           0
 GLOBAL| CPU model name                 Intel(R) Xeon(R) Gold 6248 CPU @ 2.50GHz
 GLOBAL| CPUID                                                              1003

 MEMORY| system memory details [Kb]
 MEMORY|                        rank 0           min           max       average
 MEMORY| MemTotal            394535408     394535408     394535408     394535408
 MEMORY| MemFree             387584096     387584096     387746816     387691009
 MEMORY| Buffers                     0             0             0             0
 MEMORY| Cached                1040936        877584       1040936        931620
 MEMORY| Slab                   831984        827740        831984        829658
 MEMORY| SReclaimable           148588        148588        156024        153979
 MEMORY| MemLikelyFree       388773620     388770828     388781672     388776608



                      ************* ******** ***********   
                     ************* **********************  
                     ****     **** ****      ***********   
                     ******** ****  *******     ****       
                     *******  ****   *******   ****        
                     ****     ****       ****  ****        
                     ****     **** **********  ****        
                      ****     **** ********    ****       
                     FRONTIERS IN SIMULATION TECHNOLOGY    
                                                           
                        C.J. Mundy, S. Balasubramanian,    
                     Ken Bagchi, J. Hutter, Ari Seitsonen  
                      IFW Kuo, T. Laino, J. VandeVondele   
                                 Version 1.0               

                                                           


 EWALD| Summation is done by:                                               SPME
 EWALD| Alpha parameter [       ANGSTROM^-1]                              0.4000
 EWALD| Real Space Cutoff [          ANGSTROM]                            8.4348
 EWALD| G-space max. Miller index                         80        80        80
 EWALD| Spline interpolation order                                             6

 FORCEFIELD| WARNING: A non Critical ForceField parameter is missing! CP2K GOES!
 FORCEFIELD| Non critical parameters are:Urey-Bradley,Torsions,Impropers, Opbends and 1-4
 FORCEFIELD| All missing parameters will not contribute to the potential energy!
 FORCEFIELD| Activate the print key FF_INFO to have a list of missing parameters

 CHARGE_INFO| Total Charge of the Classical System:                    -0.825808

 SPLINE_INFO| Generating 101926 splines for NONBONDED14 interactions 
              Due to 451 different atomic kinds
  ...10192  ...20384  ...30576  ...40768  ...50960  ...61152  ...71344  ...81536  ...91728  ...101920
 SPLINE_INFO| Number of unique splines computed:            301
 SPLINE_INFO| Done

 SPLINE_INFO| Generating 101926 splines for NONBONDED interactions 
              Due to 451 different atomic kinds
  ...10192  ...20384  ...30576  ...40768  ...50960  ...61152  ...71344  ...81536  ...91728  ...101920
 SPLINE_INFO| Number of unique splines computed:            301
 SPLINE_INFO| Done

 *******************************************************************************
 *******************************************************************************
 **                                                                           **
 **     #####                         ##              ##                      **
 **    ##   ##            ##          ##              ##                      **
 **   ##     ##                       ##            ######                    **
 **   ##     ##  ##   ##  ##   #####  ##  ##   ####   ##    #####    #####    **
 **   ##     ##  ##   ##  ##  ##      ## ##   ##      ##   ##   ##  ##   ##   **
 **   ##  ## ##  ##   ##  ##  ##      ####     ###    ##   ######   ######    **
 **    ##  ###   ##   ##  ##  ##      ## ##      ##   ##   ##       ##        **
 **     #######   #####   ##   #####  ##  ##  ####    ##    #####   ##        **
 **           ##                                                    ##        **
 **                                                                           **
 **                                                ... make the atoms dance   **
 **                                                                           **
 **            Copyright (C) by CP2K developers group (2000-2021)             **
 **                      J. Chem. Phys. 152, 194103 (2020)                    **
 **                                                                           **
 *******************************************************************************


 TOTAL NUMBERS AND MAXIMUM NUMBERS

  Total number of            - Atomic kinds:                                   5
                             - Atoms:                                         68
                             - Shell sets:                                    68
                             - Shells:                                       274
                             - Primitive Cartesian functions:                476
                             - Cartesian basis functions:                    655
                             - Spherical basis functions:                    620

  Maximum angular momentum of- Orbital basis functions:                        2
                             - Local part of the GTH pseudopotential:          2
                             - Non-local part of the GTH pseudopotential:      0


 SCF PARAMETERS         Density guess:                                   RESTART
                        --------------------------------------------------------
                        max_scf:                                             300
                        max_scf_history:                                       0
                        max_diis:                                              4
                        --------------------------------------------------------
                        eps_scf:                                        1.00E-06
                        eps_scf_history:                                0.00E+00
                        eps_diis:                                       1.00E-01
                        eps_eigval:                                     1.00E-05
                        --------------------------------------------------------
                        level_shift [a.u.]:                                 0.00
                        --------------------------------------------------------
                        No outer SCF

 *******************************************************************************
 *******************************************************************************
 **                                                                           **
 **             #######  ##     ## ##     ## ##     ##                        **
 **            ##     ## ###   ### ###   ### ###   ###                        **
 **            ##     ## #### #### #### #### #### ####                        **
 **            ##     ## ## ### ## ## ### ## ## ### ##                        **
 **            ##  ## ## ##     ## ##     ## ##     ##                        **
 **            ##    ##  ##     ## ##     ## ##     ##  T.Laino and F.Mohamed **
 **             ##### ## ##     ## ##     ## ##     ##  2005 - 2015           **
 **                                                                           **
 **                                                     Calculation Started.. **
 *******************************************************************************
 *******************************************************************************

 MD_PAR| Molecular dynamics protocol (MD input parameters)
 MD_PAR| Ensemble type                                                       NVE
 MD_PAR| Number of time steps                                                  1
 MD_PAR| Time step [fs]                                                 1.000000
 MD_PAR| Temperature [K]                                              300.000000
 MD_PAR| Temperature tolerance [K]                                      0.000000
 MD_PAR| Print MD information every                                    1 step(s)
 MD_PAR| File type   Print frequency [steps]                          File names
 MD_PAR| Coordinates          1                            CBD_PHY-PBE-pos-1.xyz
 MD_PAR| Velocities           1                            CBD_PHY-PBE-vel-1.xyz
 MD_PAR| Energies             1                               CBD_PHY-PBE-1.ener
 MD_PAR| Dump                20                            CBD_PHY-PBE-1.restart

 ROT| Rotational analysis information
 ROT| Principal axes and moments of inertia [a.u.]
 ROT|                           1                   2                   3
 ROT| Eigenvalues      7.21623863333E+03   6.33320921951E+08   6.33322441751E+08
 ROT|      x              0.594439314747      0.755242083864      0.276136371824
 ROT|      y             -0.607310314858      0.646719561172     -0.461441210410
 ROT|      z             -0.527082614540      0.106598329996      0.843101840522
 ROT| Number of rotovibrational vectors                                        6

 DOF| Calculation of degrees of freedom
 DOF| Number of atoms                                                     167923
 DOF| Number of intramolecular constraints                                     0
 DOF| Number of intermolecular constraints                                     0
 DOF| Invariants (translations + rotations)                                    3
 DOF| Degrees of freedom                                                  503766

 DOF| Restraints information
 DOF| Number of intramolecular restraints                                      0
 DOF| Number of intermolecular restraints                                      0

 MD_VEL| Velocities initialization
 MD_VEL| Initial temperature [K]                                      300.000000
 MD_VEL| COM velocity            -0.0000000000     0.0000000000     0.0000000000

  Translating the system in order to center the QM fragment in the QM box.

 Number of electrons:                                                        180
 Number of occupied orbitals:                                                 90
 Number of molecular orbitals:                                                90

 Number of orbital functions:                                                620
 Number of independent orbital functions:                                    620

 Extrapolation method: initial_guess


 SCF WAVEFUNCTION OPTIMIZATION

  ----------------------------------- OT ---------------------------------------
  Minimizer      : DIIS                : direct inversion
                                         in the iterative subspace
                                         using   7 DIIS vectors
                                         safer DIIS on
  Preconditioner : FULL_ALL            : diagonalization, state selective
  Precond_solver : DEFAULT
  stepsize       :    0.15000000                  energy_gap     :    0.08000000
  eps_taylor     :   0.10000E-15                  max_taylor     :             4
  ----------------------------------- OT ---------------------------------------

  Step     Update method      Time    Convergence         Total energy    Change
  ------------------------------------------------------------------------------
  Decoupling Energy:                                               0.0370860481
  Recoupling Energy:                                              -0.0063743250
     1 OT DIIS     0.15E+00    3.3     0.00001029      -256.0303947190 -2.56E+02
  Decoupling Energy:                                               0.0370861892
  Recoupling Energy:                                              -0.0063743257
     2 OT DIIS     0.15E+00    1.1     0.00000514      -256.0303952911 -5.72E-07
  Decoupling Energy:                                               0.0370855926
  Recoupling Energy:                                              -0.0063743192
     3 OT DIIS     0.15E+00    1.1     0.00000568      -256.0303953556 -6.45E-08
  Decoupling Energy:                                               0.0370861498
  Recoupling Energy:                                              -0.0063743254
     4 OT DIIS     0.15E+00    1.1     0.00000161      -256.0303954143 -5.87E-08
  Decoupling Energy:                                               0.0370859310
  Recoupling Energy:                                              -0.0063743228
     5 OT DIIS     0.15E+00    1.1     0.00000021      -256.0303954186 -4.22E-09

  *** SCF run converged in     5 steps ***


  Electronic density on regular grids:       -179.9999999994        0.0000000006
  Core density on regular grids:              180.9999999999       -0.0000000001
  Total charge density on r-space grids:        1.0000000005
  Total charge density g-space grids:           1.0000000005

  Overlap energy of the core charge distribution:               0.00001951532734
  Self energy of the core charge distribution:               -615.71576003586028
  Core Hamiltonian energy:                                    191.69815045126506
  Hartree energy:                                             247.57404799184741
  Exchange-correlation energy:                                -79.63275547082571
  QM/MM Electrostatic energy:                                   0.04590212969201

  Total energy:                                              -256.03039541855412
  Decoupling Energy:                                               0.0370859745
  Recoupling Energy:                                              -0.0063743233

 ENERGY| Total FORCE_EVAL ( QMMM ) energy [a.u.]:          -1088.195362349337529

 MD_INI| MD initialization
 MD_INI| Potential energy [hartree]                          -0.108819536235E+04
 MD_INI| Total kinetic energy [hartree]                       0.239300084734E+03
 MD_INI| QM kinetic energy [hartree]                          0.106639360339E+00
 MD_INI| Total temperature [K]                                        300.000000
 MD_INI| QM temperature [K]                                           330.137318
 MD_INI| Cell volume [bohr^3]                                 1.137316355424E+07
 MD_INI| Cell volume [ang^3]                                  1.685328937712E+06
 MD_INI| Cell lengths [bohr]      2.24884969E+02  2.24884969E+02  2.24884969E+02
 MD_INI| Cell lengths [ang]       1.19004000E+02  1.19004000E+02  1.19004000E+02
 MD_INI| Cell angles [deg]        9.00000000E+01  9.00000000E+01  9.00000000E+01

  Translating the system in order to center the QM fragment in the QM box.

 Number of electrons:                                                        180
 Number of occupied orbitals:                                                 90
 Number of molecular orbitals:                                                90

 Number of orbital functions:                                                620
 Number of independent orbital functions:                                    620

 Extrapolation method: ASPC


 SCF WAVEFUNCTION OPTIMIZATION

  ----------------------------------- OT ---------------------------------------
  Minimizer      : DIIS                : direct inversion
                                         in the iterative subspace
                                         using   7 DIIS vectors
                                         safer DIIS on
  Preconditioner : FULL_ALL            : diagonalization, state selective
  Precond_solver : DEFAULT
  stepsize       :    0.15000000                  energy_gap     :    0.08000000
  eps_taylor     :   0.10000E-15                  max_taylor     :             4
  ----------------------------------- OT ---------------------------------------

  Step     Update method      Time    Convergence         Total energy    Change
  ------------------------------------------------------------------------------
  Decoupling Energy:                                               0.0371104025
  Recoupling Energy:                                              -0.0063745549
     1 OT DIIS     0.15E+00    1.0     0.00092537      -255.8029313634 -2.56E+02
  Decoupling Energy:                                               0.0371210905
  Recoupling Energy:                                              -0.0063746935
     2 OT DIIS     0.15E+00    1.1     0.00041587      -255.8072240294 -4.29E-03
  Decoupling Energy:                                               0.0371277553
  Recoupling Energy:                                              -0.0063747956
     3 OT DIIS     0.15E+00    1.1     0.00037228      -255.8077199028 -4.96E-04
  Decoupling Energy:                                               0.0371212850
  Recoupling Energy:                                              -0.0063746999
     4 OT DIIS     0.15E+00    1.1     0.00014957      -255.8079919801 -2.72E-04
  Decoupling Energy:                                               0.0371369488
  Recoupling Energy:                                              -0.0063748859
     5 OT DIIS     0.15E+00    1.1     0.00004923      -255.8080296580 -3.77E-05
  Decoupling Energy:                                               0.0371276795
  Recoupling Energy:                                              -0.0063747811
     6 OT DIIS     0.15E+00    1.1     0.00001779      -255.8080336507 -3.99E-06
  Decoupling Energy:                                               0.0371313106
  Recoupling Energy:                                              -0.0063748226
     7 OT DIIS     0.15E+00    1.0     0.00000735      -255.8080341990 -5.48E-07
  Decoupling Energy:                                               0.0371301428
  Recoupling Energy:                                              -0.0063748095
     8 OT DIIS     0.15E+00    1.1     0.00000183      -255.8080343002 -1.01E-07
  Decoupling Energy:                                               0.0371306206
  Recoupling Energy:                                              -0.0063748146
     9 OT DIIS     0.15E+00    1.1     0.00000127      -255.8080343059 -5.75E-09
  Decoupling Energy:                                               0.0371304192
  Recoupling Energy:                                              -0.0063748126
    10 OT DIIS     0.15E+00    1.1     0.00000040      -255.8080343087 -2.80E-09

  *** SCF run converged in    10 steps ***


  Electronic density on regular grids:       -180.0000000001       -0.0000000001
  Core density on regular grids:              180.9999999999       -0.0000000001
  Total charge density on r-space grids:        0.9999999998
  Total charge density g-space grids:           0.9999999998

  Overlap energy of the core charge distribution:               0.00002367605306
  Self energy of the core charge distribution:               -615.71576003586028
  Core Hamiltonian energy:                                    191.83715153721107
  Hartree energy:                                             247.48551243058537
  Exchange-correlation energy:                                -79.67126389427602
  QM/MM Electrostatic energy:                                   0.25630197756594

  Total energy:                                              -255.80803430872086
  Decoupling Energy:                                               0.0371304353
  Recoupling Energy:                                              -0.0063748127

 ENERGY| Total FORCE_EVAL ( QMMM ) energy [a.u.]:          -1060.045711404917711

 MD| ***************************************************************************
 MD| Step number                                                               1
 MD| Time [fs]                                                          1.000000
 MD| Conserved quantity [hartree]                            -0.841545612454E+03
 MD| ---------------------------------------------------------------------------
 MD|                                          Instantaneous             Averages
 MD| CPU time per MD step [s]                     85.027851            85.027851
 MD| Energy drift per atom [K]           0.138208460330E+02   0.000000000000E+00
 MD| Potential energy [hartree]         -0.106004571140E+04  -0.106004571140E+04
 MD| Total kinetic energy [hartree]      0.218500098950E+03   0.218500098950E+03
 MD| QM kinetic energy [hartree]         0.120537399808E+00   0.120537399808E+00
 MD| Total temperature [K]                       273.923972           273.923972
 MD| QM temperature [K]                          373.163284           373.163284
 MD| ***************************************************************************

 -------------------------------------------------------------------------------
 -                                                                             -
 -                                DBCSR STATISTICS                             -
 -                                                                             -
 -------------------------------------------------------------------------------
 COUNTER                                    TOTAL       BLAS       SMM       ACC
 flops    26 x    26 x    26              2144272       0.0%      0.0%    100.0%
 flops    26 x    26 x    32              5278208       0.0%      0.0%    100.0%
 flops    26 x    32 x    26              5278208       0.0%      0.0%    100.0%
 flops    32 x    26 x    26              5278208       0.0%      0.0%    100.0%
 flops    32 x    32 x    26             12992512       0.0%      0.0%    100.0%
 flops    26 x    32 x    32             12992512       0.0%      0.0%    100.0%
 flops    32 x    26 x    32             12992512       0.0%      0.0%    100.0%
 flops    26 x    26 x     5             13830960       0.0%      0.0%    100.0%
 flops     5 x     5 x    26             13856700       0.0%      0.0%    100.0%
 flops     5 x    26 x    26             17177160       0.0%      0.0%    100.0%
 flops    32 x    32 x    32             31981568       0.0%      0.0%    100.0%
 flops    26 x    32 x     5             34045440       0.0%      0.0%    100.0%
 flops    32 x    26 x     5             34045440       0.0%      0.0%    100.0%
 flops     5 x     5 x    32             34108800       0.0%      0.0%    100.0%
 flops    13 x     5 x    26             37054940       0.0%      0.0%    100.0%
 flops     5 x    13 x    26             37119160       0.0%      0.0%    100.0%
 flops    26 x    26 x    13             38139920       0.0%      0.0%    100.0%
 flops     5 x    32 x    26             41184000       0.0%      0.0%    100.0%
 flops     5 x    26 x    32             41184000       0.0%      0.0%    100.0%
 flops    13 x    26 x    26             47367320       0.0%      0.0%    100.0%
 flops    32 x    32 x     5             83804160       0.0%      0.0%    100.0%
 flops    13 x     5 x    32             91212160       0.0%      0.0%    100.0%
 flops     5 x    13 x    32             91370240       0.0%      0.0%    100.0%
 flops    26 x    32 x    13             93882880       0.0%      0.0%    100.0%
 flops    32 x    26 x    13             93882880       0.0%      0.0%    100.0%
 flops     5 x    32 x    32            102727680       0.0%      0.0%    100.0%
 flops    13 x    13 x    26            105192360       0.0%      0.0%    100.0%
 flops     5 x    26 x     5            110424600       0.0%      0.0%    100.0%
 flops    13 x    32 x    26            113568000       0.0%      0.0%    100.0%
 flops    13 x    26 x    32            113568000       0.0%      0.0%    100.0%
 flops    32 x    32 x    13            231096320       0.0%      0.0%    100.0%
 flops    13 x    13 x    32            258935040       0.0%      0.0%    100.0%
 flops     5 x    32 x     5            271814400       0.0%      0.0%    100.0%
 flops    13 x    32 x    32            283279360       0.0%      0.0%    100.0%
 flops    13 x    26 x     5            304504200       0.0%      0.0%    100.0%
 flops     5 x    26 x    13            304504200       0.0%      0.0%    100.0%
 flops    13 x    32 x     5            749548800       0.0%      0.0%    100.0%
 flops     5 x    32 x    13            749548800       0.0%      0.0%    100.0%
 flops    13 x    26 x    13            839693400       0.0%      0.0%    100.0%
 flops    13 x    32 x    13           2066937600       0.0%      0.0%    100.0%
 flops inhomo. stacks                           0       0.0%      0.0%      0.0%
 flops total                         7.537547E+09       0.0%      0.0%    100.0%
 flops max/rank                    691.252032E+06       0.0%      0.0%    100.0%
 matmuls inhomo. stacks                         0       0.0%      0.0%      0.0%
 matmuls total                            1301637       0.0%      0.0%    100.0%
 number of processed stacks                164676       0.0%      0.0%    100.0%
 average stack size                                     0.0       0.0       7.9
 marketing flops                     8.216772E+09
 -------------------------------------------------------------------------------
 # multiplications                            299
 max memory usage/rank               3.129987E+09
 # max total images/rank                        1
 # max 3D layers                                1
 # MPI messages exchanged                   28704
 MPI messages size (bytes):
  total size                         1.182551E+09
  min size                           0.000000E+00
  max size                         197.192000E+03
  average size                      41.198117E+03
 MPI breakdown and total messages size (bytes):
             size <=      128                8211                        0
       128 < size <=     8192                5337                 38427552
      8192 < size <=    32768                3804                122640960
     32768 < size <=   131072                7608                301885440
    131072 < size <=  4194304                3744                719596800
   4194304 < size <= 16777216                   0                        0
  16777216 < size                               0                        0
 -------------------------------------------------------------------------------
 -                                                                             -
 -                      DBCSR MESSAGE PASSING PERFORMANCE                      -
 -                                                                             -
 -------------------------------------------------------------------------------
 ROUTINE             CALLS      AVE VOLUME [Bytes]
 MP_Bcast               41                     12.
 MP_Allreduce         1154                      9.
 MP_Alltoall          1305                   9979.
 MP_ISend             4776                  18649.
 MP_IRecv             4776                  17282.
 -------------------------------------------------------------------------------

 -------------------------------------------------------------------------------
 -                                                                             -
 -                                GRID STATISTICS                              -
 -                                                                             -
 -------------------------------------------------------------------------------
 LP    KERNEL             BACKEND                              COUNT     PERCENT
 3     collocate ortho    GPU                                 542716      23.92%
 3     integrate ortho    GPU                                 509446      22.45%
 4     integrate ortho    GPU                                 354711      15.63%
 4     collocate ortho    GPU                                 329645      14.53%
 2     collocate ortho    GPU                                 259911      11.46%
 2     integrate ortho    GPU                                 229335      10.11%
 5     integrate ortho    GPU                                  38780       1.71%
 0     collocate general  REF                                   2176       0.10%
 1     integrate general  REF                                   2176       0.10%
 -------------------------------------------------------------------------------

 MEMORY| Estimated peak process memory [MiB]                                2988

 -------------------------------------------------------------------------------
 -                                                                             -
 -                         MESSAGE PASSING PERFORMANCE                         -
 -                                                                             -
 -------------------------------------------------------------------------------

 ROUTINE             CALLS      AVE VOLUME [Bytes]
 MP_Group                8
 MP_Bcast             6716               10962422.
 MP_Allreduce          916                1277336.
 MP_Sync                19
 MP_Alltoall           365               70513806.
 MP_ISendRecv         1020                 147200.
 MP_Wait              2862
 MP_comm_split           6
 MP_ISend             1602                1354448.
 MP_IRecv             1600                1355117.
 MP_Recv                 6                 114080.
 -------------------------------------------------------------------------------


 -------------------------------------------------------------------------------
 -                                                                             -
 -                           R E F E R E N C E S                               -
 -                                                                             -
 -------------------------------------------------------------------------------
 
 CP2K version 8.2, the CP2K developers group (2021).
 CP2K is freely available from https://www.cp2k.org/ .

 Kuehne,Thomas D.; Iannuzzi,Marcella; Del Ben,Mauro;
 Rybkin,Vladimir V.; Seewald,Patrick; Stein,Frederick; Laino,Teodoro;
 Khaliullin,Rustam Z.; Schuett,Ole; Schiffmann,Florian; Golze,Dorothea;
 Wilhelm,Jan; Chulkov,Sergey; Bani-Hashemian,Mohammad Hossein;
 Weber,Valery; Borstnik,Urban; Taillefumier,Mathieu;
 Jakobovits,Alice Shoshana; Lazzaro,Alfio; Pabst,Hans; Mueller,Tiziano;
 Schade,Robert; Guidon,Manuel; Andermatt,Samuel; Holmberg,Nico;
 Schenter,Gregory K.; Hehn,Anna; Bussy,Augustin; Belleflamme,Fabian;
 Tabacchi,Gloria; Gloess,Andreas; Lass,Michael; Bethune,Iain;
 Mundy,Christopher J.; Plessl,Christian; Watkins,Matt;
 VandeVondele,Joost; Krack,Matthias; Hutter,Juerg. 
 The Journal of Chemical Physics, 152 (19), (2020). 
 CP2K: An electronic structure and molecular dynamics software package -
 Quickstep: Efficient and accurate electronic structure calculations.
 https://doi.org/10.1063/5.0007045

 Schuett, Ole; Messmer, Peter; Hutter, Juerg; VandeVondele, Joost. 
 Electronic Structure Calculations on Graphics Processing Units, John
 Wiley & Sons, Ltd, 173-190 (2016). 
 GPU-Accelerated Sparse Matrix-Matrix Multiplication for
 Linear Scaling Density Functional Theory.
 https://doi.org/10.1002/9781118670712.ch8

 Heinecke, A; Henry, G; Hutchinson, M; Pabst, H. 
 Proceedings of Intl. Supercomputing Conference, 981-991 (2016). 
 LIBXSMM: Accelerating Small Matrix Multiplications
 by Runtime Code Generation.
 https://doi.org/10.1109/SC.2016.83

 Borstnik, U; VandeVondele, J; Weber, V; Hutter, J. 
 PARALLEL COMPUTING, 40 (5-6), 47-58 (2014). 
 Sparse matrix multiplication: The distributed block-compressed sparse
 row library.
 https://doi.org/10.1016/j.parco.2014.03.012

 Hutter, J; Iannuzzi, M; Schiffmann, F; VandeVondele, J. 
 WIREs Comput Mol Sci., 4 (1), 15-25 (2014). 
 CP2K: atomistic simulations of condensed matter systems.
 https://doi.org/10.1002/wcms.1159

 Marek, A; Blum, V; Johanni, R; Havu, V; Lang, B; Auckenthaler, T;
 Heinecke, A; Bungartz, H; Lederer, H. 
 Journal of Physics: Condensed Matter, 26 (21), (2014). 
 The ELPA library: scalable parallel eigenvalue solutions for
 electronic structure
 theory and computational science.
 https://doi.org/10.1088/0953-8984/26/21/213201

 VandeVondele, J; Hutter, J. 
 JOURNAL OF CHEMICAL PHYSICS, 127 (11), 114105 (2007). 
 Gaussian basis sets for accurate calculations on molecular systems in
 gas and condensed phases.
 https://doi.org/10.1063/1.2770708

 Kuhne, TD; Krack, M; Mohamed, FR; Parrinello, M. 
 PHYSICAL REVIEW LETTERS, 98 (6), 066401 (2007). 
 Efficient and accurate Car-Parrinello-like approach to
 Born-Oppenheimer molecular dynamics.
 https://doi.org/10.1103/PhysRevLett.98.066401

 Laino, T; Mohamed, F; Laio, A; Parrinello, M. 
 JOURNAL OF CHEMICAL THEORY AND COMPUTATION, 2 (5), 1370-1378 (2006). 
 An efficient linear-scaling electrostatic coupling for treating
 periodic boundary conditions in QM/MM simulations.
 https://doi.org/10.1021/ct6001169

 Laino, T; Mohamed, F; Laio, A; Parrinello, M. 
 JOURNAL OF CHEMICAL THEORY AND COMPUTATION, 1 (6), 1176-1184 (2005). 
 An efficient real space multigrid QM/MM electrostatic coupling.
 https://doi.org/10.1021/ct050123f

 Krack, M. 
 THEORETICAL CHEMISTRY ACCOUNTS, 114 (1-3), 145-152 (2005). 
 Pseudopotentials for H to Kr optimized for gradient-corrected
 exchange-correlation functionals.
 https://doi.org/10.1007/s00214-005-0655-y

 VandeVondele, J; Krack, M; Mohamed, F; Parrinello, M; Chassaing, T;
 Hutter, J. COMPUTER PHYSICS COMMUNICATIONS, 167 (2), 103-128 (2005). 
 QUICKSTEP: Fast and accurate density functional calculations using a
 mixed Gaussian and plane waves approach.
 https://doi.org/10.1016/j.cpc.2004.12.014

 Frigo, M; Johnson, SG. 
 PROCEEDINGS OF THE IEEE, 93 (2), 216-231 (2005). 
 The design and implementation of FFTW3.
 https://doi.org/10.1109/JPROC.2004.840301

 Kolafa, J. 
 JOURNAL OF COMPUTATIONAL CHEMISTRY, 25 (3), 335-342 (2004). 
 Time-reversible always stable predictor-corrector method for molecular dynamics of polarizable molecules.
 https://doi.org/10.1002/jcc.10385

 VandeVondele, J; Hutter, J. 
 JOURNAL OF CHEMICAL PHYSICS, 118 (10), 4365-4369 (2003). 
 An efficient orbital transformation method for electronic structure
 calculations.
 https://doi.org/10.1063/1.1543154

 Hartwigsen, C; Goedecker, S; Hutter, J. 
 PHYSICAL REVIEW B, 58 (7), 3641-3662 (1998). 
 Relativistic separable dual-space Gaussian pseudopotentials from H to Rn.
 https://doi.org/10.1103/PhysRevB.58.3641

 Lippert, G; Hutter, J; Parrinello, M. 
 MOLECULAR PHYSICS, 92 (3), 477-487 (1997). 
 A hybrid Gaussian and plane wave density functional scheme.
 https://doi.org/10.1080/002689797170220

 Perdew, JP; Burke, K; Ernzerhof, M. 
 PHYSICAL REVIEW LETTERS, 77 (18), 3865-3868 (1996). 
 Generalized gradient approximation made simple.
 https://doi.org/10.1103/PhysRevLett.77.3865

 Goedecker, S; Teter, M; Hutter, J. 
 PHYSICAL REVIEW B, 54 (3), 1703-1710 (1996). 
 Separable dual-space Gaussian pseudopotentials.
 https://doi.org/10.1103/PhysRevB.54.1703

 ESSMANN, U; PERERA, L; BERKOWITZ, ML; DARDEN, T; LEE, H; PEDERSEN, LG. 
 JOURNAL OF CHEMICAL PHYSICS, 103 (19), 8577-8593 (1995). 
 A SMOOTH PARTICLE MESH EWALD METHOD.
 https://doi.org/10.1063/1.470117

 BLOCHL, PE. 
 JOURNAL OF CHEMICAL PHYSICS, 103 (17), 7422-7428 (1995). 
 ELECTROSTATIC DECOUPLING OF PERIODIC IMAGES OF PLANE-WAVE-EXPANDED
 DENSITIES AND DERIVED ATOMIC POINT CHARGES.
 https://doi.org/10.1063/1.470314


 -------------------------------------------------------------------------------
 -                                                                             -
 -                                T I M I N G                                  -
 -                                                                             -
 -------------------------------------------------------------------------------
 SUBROUTINE                       CALLS  ASD         SELF TIME        TOTAL TIME
                                MAXIMUM       AVERAGE  MAXIMUM  AVERAGE  MAXIMUM
 CP2K                                 1  1.0    0.379    0.418  129.356  129.356
 qs_mol_dyn_low                       1  2.0    0.008    0.009   86.126   87.634
 qmmm_env_create                      1  2.0    9.398    9.486   41.233   41.241
 velocity_verlet                      1  3.0    0.006    0.008   39.797   39.826
 fist_init                            1  3.0    0.000    0.000   26.116   26.118
 qmmm_el_coupling                     2  3.5    0.000    0.000   25.857   26.003
 qmmm_elec_with_gaussian              2  4.5    0.019    0.021   25.856   26.002
 qs_forces                            2  3.5    0.000    0.000   25.136   25.138
 qmmm_forces                          2  3.5    0.008    0.009   23.333   23.334
 qs_energies                          2  4.5    0.000    0.000   23.161   23.163
 qmmm_forces_with_gaussian            2  4.5    0.022    0.027   22.525   23.046
 qmmm_elec_with_gaussian_low          2  5.5    0.000    0.000   19.128   19.570
 scf_env_do_scf                       2  5.5    0.000    0.000   18.535   18.535
 qmmm_force_with_gaussian_low         2  5.5    0.000    0.000   14.632   15.122
 scf_env_do_scf_inner_loop           15  6.7    0.000    0.001   15.011   15.014
 force_field_control                  1  4.0    0.000    0.000   13.866   14.556
 rebuild_ks_matrix                   17  8.3    0.000    0.000   14.305   14.317
 qs_ks_build_kohn_sham_matrix        17  9.3    0.002    0.003   14.305   14.317
 rdparm_amber_8                       2  6.5   10.939   11.518   12.722   12.799
 qs_ks_update_qs_env                 17  7.6    0.000    0.000   12.439   12.450
 qmmm_forces_gaussian_low_R           2  6.5    0.000    0.000   11.640   11.806
 qmmm_forces_with_gaussian_LG         2  7.5   11.640   11.806   11.640   11.806
 topology_control                     1  4.0    0.000    0.000   11.563   11.621
 pw_transfer                        362 11.8    0.023    0.026   11.227   11.530
 fft_wrap_pw1pw2                    301 12.9    0.003    0.004   11.096   11.399
 qmmm_elec_gaussian_low_R             2  6.5    0.000    0.000   10.661   11.104
 qmmm_elec_with_gaussian_LG           2  7.5   10.661   11.104   10.661   11.104
 fft_wrap_pw1pw2_200                191 14.2    0.001    0.001   10.320   10.621
 fist_calc_energy_force               2  3.5    0.019    0.021    9.746    9.881
 pw_integral_ab                     899  6.9    9.167    9.333    9.403    9.593
 qmmm_elec_gaussian_low_G             2  6.5    8.468    8.701    8.468    8.701
 qs_vxc_create                       17 10.3    0.000    0.001    8.520    8.531
 xc_vxc_pw_create                    17 11.3    0.241    0.252    8.520    8.531
 force_field_pack                     1  5.0    0.020    0.021    7.811    8.427
 mp_sum_dm3                          13  5.2    6.930    7.591    6.930    7.591
 connectivity_control                 2  4.0    0.000    0.000    6.930    6.933
 pw_restrict_s3                       6  5.5    0.781    0.969    6.683    6.834
 read_connectivity_amber              1  6.0    0.000    0.000    6.780    6.783
 dbcsr_multiply_generic             299 12.5    0.011    0.012    6.375    6.552
 pw_cuda_c1dr3d_3d_ps               161 15.3    0.003    0.003    5.830    6.335
 multiply_cannon                    299 13.5    0.055    0.076    5.721    6.281
 multiply_cannon_loop               299 14.5    0.030    0.033    5.573    6.129
 read_force_field_amber               1  5.0    0.009    0.009    5.951    6.029
 force_nonbond                        2  4.5    4.312    5.959    4.312    5.959
 pw_cuda_r3dc1d_3d_ps               140 14.5    0.003    0.003    5.262    5.673
 force_field_pack_splines             2  6.0    0.018    0.019    5.003    5.635
 get_nonbond_storage                  2  7.0    0.191    0.201    4.739    5.376
 mp_sum_d                           848  6.1    3.202    5.353    3.202    5.353
 set_potparm_index                  602  8.0    0.304    0.311    4.548    5.184
 qmmm_elec_with_gaussian:spline       2  5.5    0.000    0.000    5.000    5.150
 pw_prolongate_s3                     6  6.5    0.563    0.631    5.000    5.150
 multiply_cannon_multrec           1196 15.5    3.049    5.086    3.903    5.103
 eval_pw_TabLR                        3  3.0    0.749    4.895    4.969    4.974
 init_genpot                        604  9.0    4.254    4.888    4.254    4.888
 xc_rho_set_and_dset_create          17 12.3    0.031    0.034    4.154    4.401
 dbcsr_mm_accdrv_process           1930 16.1    0.809    3.690    0.840    4.028
 init_scf_run                         2  5.5    0.000    0.000    3.998    3.998
 scf_env_initial_rho_setup            2  6.5    0.000    0.000    3.998    3.998
 x_to_yz                            161 16.3    1.600    2.250    3.157    3.828
 mp_alltoall_z22v                   301 16.9    3.271    3.767    3.271    3.767
 calculate_first_density_matrix       1  7.0    0.000    0.000    3.479    3.551
 init_scf_loop                        2  6.5    0.000    0.000    3.520    3.520
 qs_rho_update_rho                   17  7.7    0.000    0.000    3.390    3.423
 calculate_rho_elec                  17  8.7    0.176    0.177    3.390    3.423
 qmmm_forces_gaussian_low_G           2  6.5    2.992    3.316    2.992    3.316
 topology_coordinate_pack             2  4.0    0.000    0.000    3.056    3.106
 mp_waitall_1                     15612 16.6    1.066    3.085    1.066    3.085
 density_rs2pw                       17  9.7    0.001    0.001    2.864    3.005
 yz_to_x                            140 15.5    0.868    1.195    2.583    2.999
 multiply_cannon_metrocomm3        1196 15.5    0.002    0.002    0.740    2.943
 topology_coordinate_pack_11          2  5.0    2.820    2.868    2.820    2.868
 -------------------------------------------------------------------------------

 The number of warnings for this run is : 0
 
 -------------------------------------------------------------------------------
  **** **** ******  **  PROGRAM ENDED AT                 2021-07-23 22:49:56.114
 ***** ** ***  *** **   PROGRAM RAN ON                                    r2i5n2
 **    ****   ******    PROGRAM RAN BY                                    hollyj
 ***** **    ** ** **   PROGRAM PROCESS ID                                 13684
  **** **  *******  **  PROGRAM STOPPED IN /lustre/home/w68/hollyj/CP2K/Cirrus/G
                                           PU/cp2kMD/CBD_PHY/1STEPS/4NODES/36CPN
                                           /10THREADS
