 DBCSR| CPU Multiplication driver                                           BLAS
 DBCSR| Multrec recursion limit                                              512
 DBCSR| Multiplication stack size                                           1000
 DBCSR| Maximum elements for images                                    UNLIMITED
 DBCSR| Multiplicative factor virtual images                                   1
 DBCSR| Use multiplication densification                                       T
 DBCSR| Multiplication size stacks                                             3
 DBCSR| Use memory pool for CPU allocation                                     F
 DBCSR| Number of 3D layers                                               SINGLE
 DBCSR| Use MPI memory allocation                                              F
 DBCSR| Use RMA algorithm                                                      F
 DBCSR| Use Communication thread                                               T
 DBCSR| Communication thread load                                             83
 DBCSR| MPI: My node id                                                        0
 DBCSR| MPI: Number of nodes                                                 128
 DBCSR| OMP: Current number of threads                                         2
 DBCSR| OMP: Max number of threads                                             2
 DBCSR| Split modifier for TAS multiplication algorithm                  1.0E+00


  **** **** ******  **  PROGRAM STARTED AT               2021-08-31 15:07:41.880
 ***** ** ***  *** **   PROGRAM STARTED ON                             nid001142
 **    ****   ******    PROGRAM STARTED BY                                 hjbio
 ***** **    ** ** **   PROGRAM PROCESS ID                                236996
  **** **  *******  **  PROGRAM STARTED IN /lus/cls01095/work/d118/d118/hjbio/qm
                                           mm-benchmarking/archer2/CPU/cp2kMD/CB
                                           D_PHY/6STEPS/2NODES/128CPN/2THREADS

 CP2K| version string:                                          CP2K version 8.2
 CP2K| source code revision number:                                  git:310b7ab
 CP2K| cp2kflags: omp libint fftw3 libxc elpa parallel mpi3 scalapack plumed2   
 CP2K| is freely available from                            https://www.cp2k.org/
 CP2K| Program compiled at                          Thu 10 Jun 17:43:51 BST 2021
 CP2K| Program compiled on                                                 uan01
 CP2K| Program compiled for                                              ARCHER2
 CP2K| Data directory path              /work/d118/d118/hjbio/CP2K/cp2k-8.2/data
 CP2K| Input file name                                          CBD_PHY-cp2k.inp

 GLOBAL| Force Environment number                                              1
 GLOBAL| Basis set file name                                        BASIS_MOLOPT
 GLOBAL| Potential file name                                           POTENTIAL
 GLOBAL| MM Potential file name                                     MM_POTENTIAL
 GLOBAL| Coordinate file name                                        CBD_PHY.pdb
 GLOBAL| Method name                                                        CP2K
 GLOBAL| Project name                                                CBD_PHY-PBE
 GLOBAL| Run type                                                             MD
 GLOBAL| FFT library                                                       FFTW3
 GLOBAL| Diagonalization library                                            ELPA
 GLOBAL| Minimum number of eigenvectors for ELPA usage                        16
 GLOBAL| Orthonormality check for eigenvectors                          DISABLED
 GLOBAL| Matrix multiplication library                                    SCALAP
 GLOBAL| All-to-all communication in single precision                          F
 GLOBAL| FFTs using library dependent lengths                                  F
 GLOBAL| Grid backend                                                       AUTO
 GLOBAL| Global print level                                                  LOW
 GLOBAL| MPI I/O enabled                                                       T
 GLOBAL| Total number of message passing processes                           128
 GLOBAL| Number of threads for this process                                    2
 GLOBAL| This output is from process                                           0
 GLOBAL| CPU model name                          AMD EPYC 7742 64-Core Processor
 GLOBAL| CPUID                                                              1002

 MEMORY| system memory details [Kb]
 MEMORY|                        rank 0           min           max       average
 MEMORY| MemTotal            263568576     263568576     263568576     263568576
 MEMORY| MemFree             240963796     240963796     246780404     243872100
 MEMORY| Buffers                276168        101352        276168        188760
 MEMORY| Cached                1386156       1386156       2479492       1932824
 MEMORY| Slab                  2543652       1632624       2543652       2088138
 MEMORY| SReclaimable           202984        143160        202984        173072
 MEMORY| MemLikelyFree       242829104     242829104     249504408     246166756



                      ************* ******** ***********   
                     ************* **********************  
                     ****     **** ****      ***********   
                     ******** ****  *******     ****       
                     *******  ****   *******   ****        
                     ****     ****       ****  ****        
                     ****     **** **********  ****        
                      ****     **** ********    ****       
                     FRONTIERS IN SIMULATION TECHNOLOGY    
                                                           
                        C.J. Mundy, S. Balasubramanian,    
                     Ken Bagchi, J. Hutter, Ari Seitsonen  
                      IFW Kuo, T. Laino, J. VandeVondele   
                                 Version 1.0               

                                                           


 EWALD| Summation is done by:                                               SPME
 EWALD| Alpha parameter [       ANGSTROM^-1]                              0.4000
 EWALD| Real Space Cutoff [          ANGSTROM]                            8.4348
 EWALD| G-space max. Miller index                         80        80        80
 EWALD| Spline interpolation order                                             6

 FORCEFIELD| WARNING: A non Critical ForceField parameter is missing! CP2K GOES!
 FORCEFIELD| Non critical parameters are:Urey-Bradley,Torsions,Impropers, Opbends and 1-4
 FORCEFIELD| All missing parameters will not contribute to the potential energy!
 FORCEFIELD| Activate the print key FF_INFO to have a list of missing parameters

 CHARGE_INFO| Total Charge of the Classical System:                    -0.825808

 SPLINE_INFO| Generating 101926 splines for NONBONDED14 interactions 
              Due to 451 different atomic kinds
  ...10192  ...20384  ...30576  ...40768  ...50960  ...61152  ...71344  ...81536  ...91728  ...101920
 SPLINE_INFO| Number of unique splines computed:            301
 SPLINE_INFO| Done

 SPLINE_INFO| Generating 101926 splines for NONBONDED interactions 
              Due to 451 different atomic kinds
  ...10192  ...20384  ...30576  ...40768  ...50960  ...61152  ...71344  ...81536  ...91728  ...101920
 SPLINE_INFO| Number of unique splines computed:            301
 SPLINE_INFO| Done

 *******************************************************************************
 *******************************************************************************
 **                                                                           **
 **     #####                         ##              ##                      **
 **    ##   ##            ##          ##              ##                      **
 **   ##     ##                       ##            ######                    **
 **   ##     ##  ##   ##  ##   #####  ##  ##   ####   ##    #####    #####    **
 **   ##     ##  ##   ##  ##  ##      ## ##   ##      ##   ##   ##  ##   ##   **
 **   ##  ## ##  ##   ##  ##  ##      ####     ###    ##   ######   ######    **
 **    ##  ###   ##   ##  ##  ##      ## ##      ##   ##   ##       ##        **
 **     #######   #####   ##   #####  ##  ##  ####    ##    #####   ##        **
 **           ##                                                    ##        **
 **                                                                           **
 **                                                ... make the atoms dance   **
 **                                                                           **
 **            Copyright (C) by CP2K developers group (2000-2021)             **
 **                      J. Chem. Phys. 152, 194103 (2020)                    **
 **                                                                           **
 *******************************************************************************


 TOTAL NUMBERS AND MAXIMUM NUMBERS

  Total number of            - Atomic kinds:                                   5
                             - Atoms:                                         68
                             - Shell sets:                                    68
                             - Shells:                                       274
                             - Primitive Cartesian functions:                476
                             - Cartesian basis functions:                    655
                             - Spherical basis functions:                    620

  Maximum angular momentum of- Orbital basis functions:                        2
                             - Local part of the GTH pseudopotential:          2
                             - Non-local part of the GTH pseudopotential:      0


 SCF PARAMETERS         Density guess:                                   RESTART
                        --------------------------------------------------------
                        max_scf:                                             300
                        max_scf_history:                                       0
                        max_diis:                                              4
                        --------------------------------------------------------
                        eps_scf:                                        1.00E-06
                        eps_scf_history:                                0.00E+00
                        eps_diis:                                       1.00E-01
                        eps_eigval:                                     1.00E-05
                        --------------------------------------------------------
                        level_shift [a.u.]:                                 0.00
                        --------------------------------------------------------
                        No outer SCF

 *******************************************************************************
 *******************************************************************************
 **                                                                           **
 **             #######  ##     ## ##     ## ##     ##                        **
 **            ##     ## ###   ### ###   ### ###   ###                        **
 **            ##     ## #### #### #### #### #### ####                        **
 **            ##     ## ## ### ## ## ### ## ## ### ##                        **
 **            ##  ## ## ##     ## ##     ## ##     ##                        **
 **            ##    ##  ##     ## ##     ## ##     ##  T.Laino and F.Mohamed **
 **             ##### ## ##     ## ##     ## ##     ##  2005 - 2015           **
 **                                                                           **
 **                                                     Calculation Started.. **
 *******************************************************************************
 *******************************************************************************

 MD_PAR| Molecular dynamics protocol (MD input parameters)
 MD_PAR| Ensemble type                                                       NVE
 MD_PAR| Number of time steps                                                  6
 MD_PAR| Time step [fs]                                                 1.000000
 MD_PAR| Temperature [K]                                              300.000000
 MD_PAR| Temperature tolerance [K]                                      0.000000
 MD_PAR| Print MD information every                                    1 step(s)
 MD_PAR| File type   Print frequency [steps]                          File names
 MD_PAR| Coordinates          1                            CBD_PHY-PBE-pos-1.xyz
 MD_PAR| Velocities           1                            CBD_PHY-PBE-vel-1.xyz
 MD_PAR| Energies             1                               CBD_PHY-PBE-1.ener
 MD_PAR| Dump                20                            CBD_PHY-PBE-1.restart

 ROT| Rotational analysis information
 ROT| Principal axes and moments of inertia [a.u.]
 ROT|                           1                   2                   3
 ROT| Eigenvalues      1.56283164001E+13   1.56407408488E+13   1.56663418804E+13
 ROT|      x              0.901637047331     -0.018153263569      0.432112362589
 ROT|      y              0.323714777231      0.690893927917     -0.646431994388
 ROT|      z             -0.286808957117      0.722728191915      0.628812040859
 ROT| Number of rotovibrational vectors                                        6

 DOF| Calculation of degrees of freedom
 DOF| Number of atoms                                                     167923
 DOF| Number of intramolecular constraints                                     0
 DOF| Number of intermolecular constraints                                     0
 DOF| Invariants (translations + rotations)                                    3
 DOF| Degrees of freedom                                                  503766

 DOF| Restraints information
 DOF| Number of intramolecular restraints                                      0
 DOF| Number of intermolecular restraints                                      0

 MD_VEL| Velocities initialization
 MD_VEL| Initial temperature [K]                                      300.000000
 MD_VEL| COM velocity            -0.0000000000     0.0000000000     0.0000000000

  Translating the system in order to center the QM fragment in the QM box.

 Number of electrons:                                                        180
 Number of occupied orbitals:                                                 90
 Number of molecular orbitals:                                                90

 Number of orbital functions:                                                620
 Number of independent orbital functions:                                    620

 Extrapolation method: initial_guess


 SCF WAVEFUNCTION OPTIMIZATION

  ----------------------------------- OT ---------------------------------------
  Minimizer      : DIIS                : direct inversion
                                         in the iterative subspace
                                         using   7 DIIS vectors
                                         safer DIIS on
  Preconditioner : FULL_ALL            : diagonalization, state selective
  Precond_solver : DEFAULT
  stepsize       :    0.15000000                  energy_gap     :    0.08000000
  eps_taylor     :   0.10000E-15                  max_taylor     :             4
  ----------------------------------- OT ---------------------------------------

  Step     Update method      Time    Convergence         Total energy    Change
  ------------------------------------------------------------------------------
  Decoupling Energy:                                               0.0370860478
  Recoupling Energy:                                              -0.0063743250
     1 OT DIIS     0.15E+00    0.6     0.00001021      -256.0303947307 -2.56E+02
  Decoupling Energy:                                               0.0370861868
  Recoupling Energy:                                              -0.0063743257
     2 OT DIIS     0.15E+00    0.7     0.00000510      -256.0303952932 -5.63E-07
  Decoupling Energy:                                               0.0370855967
  Recoupling Energy:                                              -0.0063743192
     3 OT DIIS     0.15E+00    0.7     0.00000563      -256.0303953566 -6.34E-08
  Decoupling Energy:                                               0.0370861480
  Recoupling Energy:                                              -0.0063743254
     4 OT DIIS     0.15E+00    0.7     0.00000160      -256.0303954144 -5.78E-08
  Decoupling Energy:                                               0.0370859312
  Recoupling Energy:                                              -0.0063743228
     5 OT DIIS     0.15E+00    0.7     0.00000021      -256.0303954186 -4.15E-09

  *** SCF run converged in     5 steps ***


  Electronic density on regular grids:       -179.9999999994        0.0000000006
  Core density on regular grids:              180.9999999999       -0.0000000001
  Total charge density on r-space grids:        1.0000000005
  Total charge density g-space grids:           1.0000000005

  Overlap energy of the core charge distribution:               0.00001951532734
  Self energy of the core charge distribution:               -615.71576003586028
  Core Hamiltonian energy:                                    191.69815043189789
  Hartree energy:                                             247.57404800385086
  Exchange-correlation energy:                                -79.63275546513543
  QM/MM Electrostatic energy:                                   0.04590213136048

  Total energy:                                              -256.03039541855907
  Decoupling Energy:                                               0.0370859744
  Recoupling Energy:                                              -0.0063743233

 ENERGY| Total FORCE_EVAL ( QMMM ) energy [a.u.]:          -1088.195362349196330

 MD_INI| MD initialization
 MD_INI| Potential energy [hartree]                          -0.108819536235E+04
 MD_INI| Total kinetic energy [hartree]                       0.239300084734E+03
 MD_INI| QM kinetic energy [hartree]                          0.106639360339E+00
 MD_INI| Total temperature [K]                                        300.000000
 MD_INI| QM temperature [K]                                           330.137318
 MD_INI| Cell volume [bohr^3]                                 1.137316355424E+07
 MD_INI| Cell volume [ang^3]                                  1.685328937712E+06
 MD_INI| Cell lengths [bohr]      2.24884969E+02  2.24884969E+02  2.24884969E+02
 MD_INI| Cell lengths [ang]       1.19004000E+02  1.19004000E+02  1.19004000E+02
 MD_INI| Cell angles [deg]        9.00000000E+01  9.00000000E+01  9.00000000E+01

  Translating the system in order to center the QM fragment in the QM box.

 Number of electrons:                                                        180
 Number of occupied orbitals:                                                 90
 Number of molecular orbitals:                                                90

 Number of orbital functions:                                                620
 Number of independent orbital functions:                                    620

 Extrapolation method: ASPC


 SCF WAVEFUNCTION OPTIMIZATION

  ----------------------------------- OT ---------------------------------------
  Minimizer      : DIIS                : direct inversion
                                         in the iterative subspace
                                         using   7 DIIS vectors
                                         safer DIIS on
  Preconditioner : FULL_ALL            : diagonalization, state selective
  Precond_solver : DEFAULT
  stepsize       :    0.15000000                  energy_gap     :    0.08000000
  eps_taylor     :   0.10000E-15                  max_taylor     :             4
  ----------------------------------- OT ---------------------------------------

  Step     Update method      Time    Convergence         Total energy    Change
  ------------------------------------------------------------------------------
  Decoupling Energy:                                               0.0371104025
  Recoupling Energy:                                              -0.0063745549
     1 OT DIIS     0.15E+00    0.6     0.00092537      -255.8029313637 -2.56E+02
  Decoupling Energy:                                               0.0371210906
  Recoupling Energy:                                              -0.0063746935
     2 OT DIIS     0.15E+00    0.7     0.00041587      -255.8072240295 -4.29E-03
  Decoupling Energy:                                               0.0371277550
  Recoupling Energy:                                              -0.0063747956
     3 OT DIIS     0.15E+00    0.7     0.00037228      -255.8077199029 -4.96E-04
  Decoupling Energy:                                               0.0371212852
  Recoupling Energy:                                              -0.0063746999
     4 OT DIIS     0.15E+00    0.7     0.00014957      -255.8079919806 -2.72E-04
  Decoupling Energy:                                               0.0371369487
  Recoupling Energy:                                              -0.0063748859
     5 OT DIIS     0.15E+00    0.7     0.00004923      -255.8080296584 -3.77E-05
  Decoupling Energy:                                               0.0371276795
  Recoupling Energy:                                              -0.0063747811
     6 OT DIIS     0.15E+00    0.7     0.00001779      -255.8080336511 -3.99E-06
  Decoupling Energy:                                               0.0371313106
  Recoupling Energy:                                              -0.0063748226
     7 OT DIIS     0.15E+00    0.7     0.00000735      -255.8080341993 -5.48E-07
  Decoupling Energy:                                               0.0371301428
  Recoupling Energy:                                              -0.0063748095
     8 OT DIIS     0.15E+00    0.7     0.00000183      -255.8080343006 -1.01E-07
  Decoupling Energy:                                               0.0371306206
  Recoupling Energy:                                              -0.0063748146
     9 OT DIIS     0.15E+00    0.7     0.00000127      -255.8080343063 -5.75E-09
  Decoupling Energy:                                               0.0371304192
  Recoupling Energy:                                              -0.0063748126
    10 OT DIIS     0.15E+00    0.7     0.00000040      -255.8080343091 -2.80E-09

  *** SCF run converged in    10 steps ***


  Electronic density on regular grids:       -180.0000000001       -0.0000000001
  Core density on regular grids:              180.9999999999       -0.0000000001
  Total charge density on r-space grids:        0.9999999998
  Total charge density g-space grids:           0.9999999998

  Overlap energy of the core charge distribution:               0.00002367605301
  Self energy of the core charge distribution:               -615.71576003586028
  Core Hamiltonian energy:                                    191.83715153453454
  Hartree energy:                                             247.48551243213632
  Exchange-correlation energy:                                -79.67126389339379
  QM/MM Electrostatic energy:                                   0.25630197742912

  Total energy:                                              -255.80803430910109
  Decoupling Energy:                                               0.0371304353
  Recoupling Energy:                                              -0.0063748127

 ENERGY| Total FORCE_EVAL ( QMMM ) energy [a.u.]:          -1060.045711405064594

 MD| ***************************************************************************
 MD| Step number                                                               1
 MD| Time [fs]                                                          1.000000
 MD| Conserved quantity [hartree]                            -0.841545612455E+03
 MD| ---------------------------------------------------------------------------
 MD|                                          Instantaneous             Averages
 MD| CPU time per MD step [s]                     59.789014            59.789014
 MD| Energy drift per atom [K]           0.138208460318E+02   0.000000000000E+00
 MD| Potential energy [hartree]         -0.106004571141E+04  -0.106004571141E+04
 MD| Total kinetic energy [hartree]      0.218500098950E+03   0.218500098950E+03
 MD| QM kinetic energy [hartree]         0.120537399455E+00   0.120537399455E+00
 MD| Total temperature [K]                       273.923972           273.923972
 MD| QM temperature [K]                          373.163283           373.163283
 MD| ***************************************************************************

  Translating the system in order to center the QM fragment in the QM box.

 Number of electrons:                                                        180
 Number of occupied orbitals:                                                 90
 Number of molecular orbitals:                                                90

 Number of orbital functions:                                                620
 Number of independent orbital functions:                                    620

 Extrapolation method: ASPC


 SCF WAVEFUNCTION OPTIMIZATION

  ----------------------------------- OT ---------------------------------------
  Minimizer      : DIIS                : direct inversion
                                         in the iterative subspace
                                         using   7 DIIS vectors
                                         safer DIIS on
  Preconditioner : FULL_ALL            : diagonalization, state selective
  Precond_solver : DEFAULT
  stepsize       :    0.15000000                  energy_gap     :    0.08000000
  eps_taylor     :   0.10000E-15                  max_taylor     :             4
  ----------------------------------- OT ---------------------------------------

  Step     Update method      Time    Convergence         Total energy    Change
  ------------------------------------------------------------------------------
  Decoupling Energy:                                               0.0371782649
  Recoupling Energy:                                              -0.0063753295
     1 OT DIIS     0.15E+00    0.6     0.00034569      -255.4446723064 -2.55E+02
  Decoupling Energy:                                               0.0371762834
  Recoupling Energy:                                              -0.0063753051
     2 OT DIIS     0.15E+00    0.7     0.00014529      -255.4452859380 -6.14E-04
  Decoupling Energy:                                               0.0371731700
  Recoupling Energy:                                              -0.0063752666
     3 OT DIIS     0.15E+00    0.7     0.00012811      -255.4453579795 -7.20E-05
  Decoupling Energy:                                               0.0371770310
  Recoupling Energy:                                              -0.0063753178
     4 OT DIIS     0.15E+00    0.7     0.00005544      -255.4453891695 -3.12E-05
  Decoupling Energy:                                               0.0371727801
  Recoupling Energy:                                              -0.0063752653
     5 OT DIIS     0.15E+00    0.7     0.00001634      -255.4453942993 -5.13E-06
  Decoupling Energy:                                               0.0371753987
  Recoupling Energy:                                              -0.0063752960
     6 OT DIIS     0.15E+00    0.7     0.00000629      -255.4453947492 -4.50E-07
  Decoupling Energy:                                               0.0371743569
  Recoupling Energy:                                              -0.0063752840
     7 OT DIIS     0.15E+00    0.7     0.00000206      -255.4453948239 -7.47E-08
  Decoupling Energy:                                               0.0371747656
  Recoupling Energy:                                              -0.0063752885
     8 OT DIIS     0.15E+00    0.7     0.00000090      -255.4453948311 -7.18E-09

  *** SCF run converged in     8 steps ***


  Electronic density on regular grids:       -180.0000000008       -0.0000000008
  Core density on regular grids:              180.9999999999       -0.0000000001
  Total charge density on r-space grids:        0.9999999990
  Total charge density g-space grids:           0.9999999990

  Overlap energy of the core charge distribution:               0.00004639440285
  Self energy of the core charge distribution:               -615.71576003586028
  Core Hamiltonian energy:                                    191.92051756571652
  Hartree energy:                                             247.45180559414507
  Exchange-correlation energy:                                -79.68728052978909
  QM/MM Electrostatic energy:                                   0.58527618031410

  Total energy:                                              -255.44539483107081
  Decoupling Energy:                                               0.0371745951
  Recoupling Energy:                                              -0.0063752867

 ENERGY| Total FORCE_EVAL ( QMMM ) energy [a.u.]:          -1061.319246073427848

 MD| ***************************************************************************
 MD| Step number                                                               2
 MD| Time [fs]                                                          2.000000
 MD| Conserved quantity [hartree]                            -0.842902035493E+03
 MD| ---------------------------------------------------------------------------
 MD|                                          Instantaneous             Averages
 MD| CPU time per MD step [s]                     29.062629            44.425822
 MD| Energy drift per atom [K]           0.112701292916E+02   0.563506464580E+01
 MD| Potential energy [hartree]         -0.106131924607E+04  -0.106068247874E+04
 MD| Total kinetic energy [hartree]      0.218417210581E+03   0.218458654765E+03
 MD| QM kinetic energy [hartree]         0.111218646800E+00   0.115878023127E+00
 MD| Total temperature [K]                       273.820058           273.872015
 MD| QM temperature [K]                          344.314010           358.738647
 MD| ***************************************************************************

  Translating the system in order to center the QM fragment in the QM box.

 Number of electrons:                                                        180
 Number of occupied orbitals:                                                 90
 Number of molecular orbitals:                                                90

 Number of orbital functions:                                                620
 Number of independent orbital functions:                                    620

 Extrapolation method: ASPC


 SCF WAVEFUNCTION OPTIMIZATION

  ----------------------------------- OT ---------------------------------------
  Minimizer      : DIIS                : direct inversion
                                         in the iterative subspace
                                         using   7 DIIS vectors
                                         safer DIIS on
  Preconditioner : FULL_ALL            : diagonalization, state selective
  Precond_solver : DEFAULT
  stepsize       :    0.15000000                  energy_gap     :    0.08000000
  eps_taylor     :   0.10000E-15                  max_taylor     :             4
  ----------------------------------- OT ---------------------------------------

  Step     Update method      Time    Convergence         Total energy    Change
  ------------------------------------------------------------------------------
  Decoupling Energy:                                               0.0372093686
  Recoupling Energy:                                              -0.0063756581
     1 OT DIIS     0.15E+00    0.6     0.00068288      -254.9647888735 -2.55E+02
  Decoupling Energy:                                               0.0372203239
  Recoupling Energy:                                              -0.0063757651
     2 OT DIIS     0.15E+00    0.7     0.00025903      -254.9670248347 -2.24E-03
  Decoupling Energy:                                               0.0372193634
  Recoupling Energy:                                              -0.0063757535
     3 OT DIIS     0.15E+00    0.7     0.00015274      -254.9672853833 -2.61E-04
  Decoupling Energy:                                               0.0372147276
  Recoupling Energy:                                              -0.0063757082
     4 OT DIIS     0.15E+00    0.7     0.00007836      -254.9673487019 -6.33E-05
  Decoupling Energy:                                               0.0372155263
  Recoupling Energy:                                              -0.0063757148
     5 OT DIIS     0.15E+00    0.7     0.00002591      -254.9673601207 -1.14E-05
  Decoupling Energy:                                               0.0372158098
  Recoupling Energy:                                              -0.0063757173
     6 OT DIIS     0.15E+00    0.7     0.00001297      -254.9673612312 -1.11E-06
  Decoupling Energy:                                               0.0372161516
  Recoupling Energy:                                              -0.0063757209
     7 OT DIIS     0.15E+00    0.7     0.00000392      -254.9673615304 -2.99E-07
  Decoupling Energy:                                               0.0372156716
  Recoupling Energy:                                              -0.0063757160
     8 OT DIIS     0.15E+00    0.7     0.00000141      -254.9673615568 -2.64E-08
  Decoupling Energy:                                               0.0372158579
  Recoupling Energy:                                              -0.0063757180
     9 OT DIIS     0.15E+00    0.7     0.00000048      -254.9673615610 -4.19E-09

  *** SCF run converged in     9 steps ***


  Electronic density on regular grids:       -180.0000000026       -0.0000000026
  Core density on regular grids:              180.9999999999       -0.0000000001
  Total charge density on r-space grids:        0.9999999973
  Total charge density g-space grids:           0.9999999973

  Overlap energy of the core charge distribution:               0.00004419926802
  Self energy of the core charge distribution:               -615.71576003586028
  Core Hamiltonian energy:                                    191.78835509526476
  Hartree energy:                                             247.54137729876703
  Exchange-correlation energy:                                -79.64149443203260
  QM/MM Electrostatic energy:                                   1.06011631359494

  Total energy:                                              -254.96736156099811
  Decoupling Energy:                                               0.0372157866
  Recoupling Energy:                                              -0.0063757172

 ENERGY| Total FORCE_EVAL ( QMMM ) energy [a.u.]:          -1082.129011333757944

 MD| ***************************************************************************
 MD| Step number                                                               3
 MD| Time [fs]                                                          3.000000
 MD| Conserved quantity [hartree]                            -0.846476809067E+03
 MD| ---------------------------------------------------------------------------
 MD|                                          Instantaneous             Averages
 MD| CPU time per MD step [s]                     30.225445            39.692363
 MD| Energy drift per atom [K]           0.454786452340E+01   0.527266460500E+01
 MD| Potential energy [hartree]         -0.108212901133E+04  -0.106783132294E+04
 MD| Total kinetic energy [hartree]      0.235652202267E+03   0.224189837266E+03
 MD| QM kinetic energy [hartree]         0.116444682000E+00   0.116066909418E+00
 MD| Total temperature [K]                       295.426810           281.056947
 MD| QM temperature [K]                          360.492926           359.323406
 MD| ***************************************************************************

  Translating the system in order to center the QM fragment in the QM box.

 Number of electrons:                                                        180
 Number of occupied orbitals:                                                 90
 Number of molecular orbitals:                                                90

 Number of orbital functions:                                                620
 Number of independent orbital functions:                                    620

 Extrapolation method: ASPC


 SCF WAVEFUNCTION OPTIMIZATION

  ----------------------------------- OT ---------------------------------------
  Minimizer      : DIIS                : direct inversion
                                         in the iterative subspace
                                         using   7 DIIS vectors
                                         safer DIIS on
  Preconditioner : FULL_ALL            : diagonalization, state selective
  Precond_solver : DEFAULT
  stepsize       :    0.15000000                  energy_gap     :    0.08000000
  eps_taylor     :   0.10000E-15                  max_taylor     :             4
  ----------------------------------- OT ---------------------------------------

  Step     Update method      Time    Convergence         Total energy    Change
  ------------------------------------------------------------------------------
  Decoupling Energy:                                               0.0372540981
  Recoupling Energy:                                              -0.0063761081
     1 OT DIIS     0.15E+00    0.6     0.00024459      -254.4113405057 -2.54E+02
  Decoupling Energy:                                               0.0372507590
  Recoupling Energy:                                              -0.0063760834
     2 OT DIIS     0.15E+00    0.7     0.00009754      -254.4116522324 -3.12E-04
  Decoupling Energy:                                               0.0372523112
  Recoupling Energy:                                              -0.0063760938
     3 OT DIIS     0.15E+00    0.7     0.00006294      -254.4116943783 -4.21E-05
  Decoupling Energy:                                               0.0372487210
  Recoupling Energy:                                              -0.0063760616
     4 OT DIIS     0.15E+00    0.7     0.00002077      -254.4117050289 -1.07E-05
  Decoupling Energy:                                               0.0372498214
  Recoupling Energy:                                              -0.0063760714
     5 OT DIIS     0.15E+00    0.7     0.00000699      -254.4117059472 -9.18E-07
  Decoupling Energy:                                               0.0372497343
  Recoupling Energy:                                              -0.0063760707
     6 OT DIIS     0.15E+00    0.7     0.00000424      -254.4117060209 -7.37E-08
  Decoupling Energy:                                               0.0372496961
  Recoupling Energy:                                              -0.0063760701
     7 OT DIIS     0.15E+00    0.7     0.00000103      -254.4117060509 -3.00E-08
  Decoupling Energy:                                               0.0372497534
  Recoupling Energy:                                              -0.0063760708
     8 OT DIIS     0.15E+00    0.7     0.00000046      -254.4117060527 -1.87E-09

  *** SCF run converged in     8 steps ***


  Electronic density on regular grids:       -179.9999999994        0.0000000006
  Core density on regular grids:              180.9999999999       -0.0000000001
  Total charge density on r-space grids:        1.0000000005
  Total charge density g-space grids:           1.0000000005

  Overlap energy of the core charge distribution:               0.00001948738710
  Self energy of the core charge distribution:               -615.71576003586028
  Core Hamiltonian energy:                                    191.48986428631565
  Hartree energy:                                             247.72017573601067
  Exchange-correlation energy:                                -79.55045540589043
  QM/MM Electrostatic energy:                                   1.64444987930482

  Total energy:                                              -254.41170605273243
  Decoupling Energy:                                               0.0372497052
  Recoupling Energy:                                              -0.0063760703

 ENERGY| Total FORCE_EVAL ( QMMM ) energy [a.u.]:          -1079.794214257831072

 MD| ***************************************************************************
 MD| Step number                                                               4
 MD| Time [fs]                                                          4.000000
 MD| Conserved quantity [hartree]                            -0.842197688598E+03
 MD| ---------------------------------------------------------------------------
 MD|                                          Instantaneous             Averages
 MD| CPU time per MD step [s]                     29.206339            37.070857
 MD| Energy drift per atom [K]           0.125946345276E+02   0.710315708564E+01
 MD| Potential energy [hartree]         -0.107979421426E+04  -0.107082204577E+04
 MD| Total kinetic energy [hartree]      0.237596525660E+03   0.227541509364E+03
 MD| QM kinetic energy [hartree]         0.144133271806E+00   0.123083500015E+00
 MD| Total temperature [K]                       297.864323           285.258791
 MD| QM temperature [K]                          446.212090           381.045577
 MD| ***************************************************************************

  Translating the system in order to center the QM fragment in the QM box.

 Number of electrons:                                                        180
 Number of occupied orbitals:                                                 90
 Number of molecular orbitals:                                                90

 Number of orbital functions:                                                620
 Number of independent orbital functions:                                    620

 Extrapolation method: ASPC


 SCF WAVEFUNCTION OPTIMIZATION

  ----------------------------------- OT ---------------------------------------
  Minimizer      : DIIS                : direct inversion
                                         in the iterative subspace
                                         using   7 DIIS vectors
                                         safer DIIS on
  Preconditioner : FULL_ALL            : diagonalization, state selective
  Precond_solver : DEFAULT
  stepsize       :    0.15000000                  energy_gap     :    0.08000000
  eps_taylor     :   0.10000E-15                  max_taylor     :             4
  ----------------------------------- OT ---------------------------------------

  Step     Update method      Time    Convergence         Total energy    Change
  ------------------------------------------------------------------------------
  Decoupling Energy:                                               0.0372779316
  Recoupling Energy:                                              -0.0063763730
     1 OT DIIS     0.15E+00    0.6     0.00031457      -253.8151268526 -2.54E+02
  Decoupling Energy:                                               0.0372689413
  Recoupling Energy:                                              -0.0063762905
     2 OT DIIS     0.15E+00    0.7     0.00011950      -253.8156456123 -5.19E-04
  Decoupling Energy:                                               0.0372686083
  Recoupling Energy:                                              -0.0063762777
     3 OT DIIS     0.15E+00    0.7     0.00008760      -253.8157104587 -6.48E-05
  Decoupling Energy:                                               0.0372698989
  Recoupling Energy:                                              -0.0063762979
     4 OT DIIS     0.15E+00    0.7     0.00004076      -253.8157261328 -1.57E-05
  Decoupling Energy:                                               0.0372685497
  Recoupling Energy:                                              -0.0063762803
     5 OT DIIS     0.15E+00    0.7     0.00001308      -253.8157290632 -2.93E-06
  Decoupling Energy:                                               0.0372701700
  Recoupling Energy:                                              -0.0063762991
     6 OT DIIS     0.15E+00    0.7     0.00000663      -253.8157293231 -2.60E-07
  Decoupling Energy:                                               0.0372690169
  Recoupling Energy:                                              -0.0063762862
     7 OT DIIS     0.15E+00    0.7     0.00000161      -253.8157293952 -7.20E-08
  Decoupling Energy:                                               0.0372694544
  Recoupling Energy:                                              -0.0063762910
     8 OT DIIS     0.15E+00    0.7     0.00000063      -253.8157293998 -4.65E-09

  *** SCF run converged in     8 steps ***


  Electronic density on regular grids:       -180.0000000006       -0.0000000006
  Core density on regular grids:              180.9999999999       -0.0000000001
  Total charge density on r-space grids:        0.9999999992
  Total charge density g-space grids:           0.9999999992

  Overlap energy of the core charge distribution:               0.00001460848498
  Self energy of the core charge distribution:               -615.71576003586028
  Core Hamiltonian energy:                                    191.25359589009594
  Hartree energy:                                             247.87426407092732
  Exchange-correlation energy:                                -79.47483493956545
  QM/MM Electrostatic energy:                                   2.24699100611039

  Total energy:                                              -253.81572939980711
  Decoupling Energy:                                               0.0372693262
  Recoupling Energy:                                              -0.0063762896

 ENERGY| Total FORCE_EVAL ( QMMM ) energy [a.u.]:          -1094.385760856240267

 MD| ***************************************************************************
 MD| Step number                                                               5
 MD| Time [fs]                                                          5.000000
 MD| Conserved quantity [hartree]                            -0.848473425790E+03
 MD| ---------------------------------------------------------------------------
 MD|                                          Instantaneous             Averages
 MD| CPU time per MD step [s]                     29.515504            35.559786
 MD| Energy drift per atom [K]           0.793280918198E+00   0.584118185215E+01
 MD| Potential energy [hartree]         -0.109438576086E+04  -0.107553478879E+04
 MD| Total kinetic energy [hartree]      0.245912335066E+03   0.231215674505E+03
 MD| QM kinetic energy [hartree]         0.151887287397E+00   0.128844257492E+00
 MD| Total temperature [K]                       308.289488           289.864930
 MD| QM temperature [K]                          470.217203           398.879902
 MD| ***************************************************************************

  Translating the system in order to center the QM fragment in the QM box.

 Number of electrons:                                                        180
 Number of occupied orbitals:                                                 90
 Number of molecular orbitals:                                                90

 Number of orbital functions:                                                620
 Number of independent orbital functions:                                    620

 Extrapolation method: ASPC


 SCF WAVEFUNCTION OPTIMIZATION

  ----------------------------------- OT ---------------------------------------
  Minimizer      : DIIS                : direct inversion
                                         in the iterative subspace
                                         using   7 DIIS vectors
                                         safer DIIS on
  Preconditioner : FULL_ALL            : diagonalization, state selective
  Precond_solver : DEFAULT
  stepsize       :    0.15000000                  energy_gap     :    0.08000000
  eps_taylor     :   0.10000E-15                  max_taylor     :             4
  ----------------------------------- OT ---------------------------------------

  Step     Update method      Time    Convergence         Total energy    Change
  ------------------------------------------------------------------------------
  Decoupling Energy:                                               0.0372763729
  Recoupling Energy:                                              -0.0063764058
     1 OT DIIS     0.15E+00    0.6     0.00016794      -253.2647012028 -2.53E+02
  Decoupling Energy:                                               0.0372754172
  Recoupling Energy:                                              -0.0063763916
     2 OT DIIS     0.15E+00    0.7     0.00008151      -253.2648266551 -1.25E-04
  Decoupling Energy:                                               0.0372720776
  Recoupling Energy:                                              -0.0063763537
     3 OT DIIS     0.15E+00    0.7     0.00005932      -253.2648437275 -1.71E-05
  Decoupling Energy:                                               0.0372780959
  Recoupling Energy:                                              -0.0063764225
     4 OT DIIS     0.15E+00    0.7     0.00003331      -253.2648506950 -6.97E-06
  Decoupling Energy:                                               0.0372740410
  Recoupling Energy:                                              -0.0063763747
     5 OT DIIS     0.15E+00    0.7     0.00000856      -253.2648526802 -1.99E-06
  Decoupling Energy:                                               0.0372754817
  Recoupling Energy:                                              -0.0063763917
     6 OT DIIS     0.15E+00    0.7     0.00000426      -253.2648527936 -1.13E-07
  Decoupling Energy:                                               0.0372747314
  Recoupling Energy:                                              -0.0063763834
     7 OT DIIS     0.15E+00    0.7     0.00000106      -253.2648528257 -3.21E-08
  Decoupling Energy:                                               0.0372749185
  Recoupling Energy:                                              -0.0063763853
     8 OT DIIS     0.15E+00    0.7     0.00000034      -253.2648528281 -2.34E-09

  *** SCF run converged in     8 steps ***


  Electronic density on regular grids:       -180.0000000005       -0.0000000005
  Core density on regular grids:              180.9999999999       -0.0000000001
  Total charge density on r-space grids:        0.9999999994
  Total charge density g-space grids:           0.9999999994

  Overlap energy of the core charge distribution:               0.00001414076102
  Self energy of the core charge distribution:               -615.71576003586028
  Core Hamiltonian energy:                                    191.18628294478356
  Hartree energy:                                             247.93014670019519
  Exchange-correlation energy:                                -79.44845300442813
  QM/MM Electrostatic energy:                                   2.78291642648724

  Total energy:                                              -253.26485282806146
  Decoupling Energy:                                               0.0372748699
  Recoupling Energy:                                              -0.0063763848

 ENERGY| Total FORCE_EVAL ( QMMM ) energy [a.u.]:          -1057.420858989448334

 MD| ***************************************************************************
 MD| Step number                                                               6
 MD| Time [fs]                                                          6.000000
 MD| Conserved quantity [hartree]                            -0.842984613536E+03
 MD| ---------------------------------------------------------------------------
 MD|                                          Instantaneous             Averages
 MD| CPU time per MD step [s]                     29.192268            34.498533
 MD| Energy drift per atom [K]           0.111148435205E+02   0.672012546354E+01
 MD| Potential energy [hartree]         -0.105742085899E+04  -0.107251580049E+04
 MD| Total kinetic energy [hartree]      0.214436245453E+03   0.228419102996E+03
 MD| QM kinetic energy [hartree]         0.137235215400E+00   0.130242750476E+00
 MD| Total temperature [K]                       268.829297           286.358991
 MD| QM temperature [K]                          424.856881           403.209399
 MD| ***************************************************************************

 -------------------------------------------------------------------------------
 -                                                                             -
 -                                DBCSR STATISTICS                             -
 -                                                                             -
 -------------------------------------------------------------------------------
 COUNTER                                    TOTAL       BLAS       SMM       ACC
 flops     5 x    26 x    26              1561560     100.0%      0.0%      0.0%
 flops    13 x    26 x    26              4306120     100.0%      0.0%      0.0%
 flops     5 x    32 x    32              4730880     100.0%      0.0%      0.0%
 flops    18 x    26 x    26              6814080     100.0%      0.0%      0.0%
 flops    26 x    26 x    26             10088624     100.0%      0.0%      0.0%
 flops    13 x    32 x    32             13045760     100.0%      0.0%      0.0%
 flops    18 x    26 x    44             15567552     100.0%      0.0%      0.0%
 flops    18 x    26 x    32             16773120     100.0%      0.0%      0.0%
 flops    18 x    32 x    26             16773120     100.0%      0.0%      0.0%
 flops    46 x    26 x    26             17413760     100.0%      0.0%      0.0%
 flops    18 x    26 x    41             19341504     100.0%      0.0%      0.0%
 flops    62 x    26 x    26             23470720     100.0%      0.0%      0.0%
 flops    31 x    26 x    26             23470720     100.0%      0.0%      0.0%
 flops    26 x    26 x    32             24833536     100.0%      0.0%      0.0%
 flops    26 x    32 x    26             24833536     100.0%      0.0%      0.0%
 flops    32 x    26 x    26             24833536     100.0%      0.0%      0.0%
 flops    41 x    26 x    26             31041920     100.0%      0.0%      0.0%
 flops    49 x    26 x    26             37098880     100.0%      0.0%      0.0%
 flops    18 x    26 x    36             38211264     100.0%      0.0%      0.0%
 flops    18 x    32 x    44             38320128     100.0%      0.0%      0.0%
 flops    46 x    26 x    44             39783744     100.0%      0.0%      0.0%
 flops    26 x    26 x    44             41225184     100.0%      0.0%      0.0%
 flops    18 x    32 x    32             41287680     100.0%      0.0%      0.0%
 flops    46 x    26 x    32             42864640     100.0%      0.0%      0.0%
 flops    46 x    32 x    26             42864640     100.0%      0.0%      0.0%
 flops    18 x    32 x    41             47609856     100.0%      0.0%      0.0%
 flops    46 x    26 x    41             49428288     100.0%      0.0%      0.0%
 flops     5 x     5 x    26             51051000     100.0%      0.0%      0.0%
 flops    26 x    26 x    41             51219168     100.0%      0.0%      0.0%
 flops    62 x    26 x    44             53621568     100.0%      0.0%      0.0%
 flops    31 x    26 x    44             53621568     100.0%      0.0%      0.0%
 flops    31 x    32 x    26             57774080     100.0%      0.0%      0.0%
 flops    62 x    26 x    32             57774080     100.0%      0.0%      0.0%
 flops    62 x    32 x    26             57774080     100.0%      0.0%      0.0%
 flops    31 x    26 x    32             57774080     100.0%      0.0%      0.0%
 flops    32 x    32 x    26             61128704     100.0%      0.0%      0.0%
 flops    26 x    32 x    32             61128704     100.0%      0.0%      0.0%
 flops    32 x    26 x    32             61128704     100.0%      0.0%      0.0%
 flops    62 x    26 x    41             66620736     100.0%      0.0%      0.0%
 flops    31 x    26 x    41             66620736     100.0%      0.0%      0.0%
 flops    41 x    26 x    44             70918848     100.0%      0.0%      0.0%
 flops    41 x    26 x    32             76410880     100.0%      0.0%      0.0%
 flops    41 x    32 x    26             76410880     100.0%      0.0%      0.0%
 flops    49 x    26 x    44             84756672     100.0%      0.0%      0.0%
 flops    41 x    26 x    41             88111296     100.0%      0.0%      0.0%
 flops    49 x    32 x    26             91320320     100.0%      0.0%      0.0%
 flops    49 x    26 x    32             91320320     100.0%      0.0%      0.0%
 flops    18 x    32 x    36             94058496     100.0%      0.0%      0.0%
 flops    36 x    26 x    26             95397120     100.0%      0.0%      0.0%
 flops    46 x    26 x    36             97651008     100.0%      0.0%      0.0%
 flops    46 x    32 x    44             97929216     100.0%      0.0%      0.0%
 flops    26 x    26 x    36            101189088     100.0%      0.0%      0.0%
 flops    26 x    32 x    44            101477376     100.0%      0.0%      0.0%
 flops    32 x    26 x    44            101477376     100.0%      0.0%      0.0%
 flops    49 x    26 x    41            105303744     100.0%      0.0%      0.0%
 flops    46 x    32 x    32            105512960     100.0%      0.0%      0.0%
 flops    46 x    32 x    41            121669632     100.0%      0.0%      0.0%
 flops     5 x     5 x    32            125664000     100.0%      0.0%      0.0%
 flops    26 x    32 x    41            126077952     100.0%      0.0%      0.0%
 flops    32 x    26 x    41            126077952     100.0%      0.0%      0.0%
 flops    62 x    26 x    36            131616576     100.0%      0.0%      0.0%
 flops    31 x    26 x    36            131616576     100.0%      0.0%      0.0%
 flops    31 x    32 x    44            131991552     100.0%      0.0%      0.0%
 flops    62 x    32 x    44            131991552     100.0%      0.0%      0.0%
 flops    13 x     5 x    26            136518200     100.0%      0.0%      0.0%
 flops     5 x    13 x    26            136754800     100.0%      0.0%      0.0%
 flops    31 x    32 x    32            142213120     100.0%      0.0%      0.0%
 flops    62 x    32 x    32            142213120     100.0%      0.0%      0.0%
 flops    32 x    32 x    32            150470656     100.0%      0.0%      0.0%
 flops    31 x    32 x    41            163989504     100.0%      0.0%      0.0%
 flops    62 x    32 x    41            163989504     100.0%      0.0%      0.0%
 flops    41 x    26 x    36            174073536     100.0%      0.0%      0.0%
 flops    41 x    32 x    44            174569472     100.0%      0.0%      0.0%
 flops    41 x    32 x    32            188088320     100.0%      0.0%      0.0%
 flops    49 x    26 x    36            208039104     100.0%      0.0%      0.0%
 flops    49 x    32 x    44            208631808     100.0%      0.0%      0.0%
 flops    41 x    32 x    41            216889344     100.0%      0.0%      0.0%
 flops    36 x    26 x    44            217945728     100.0%      0.0%      0.0%
 flops    49 x    32 x    32            224788480     100.0%      0.0%      0.0%
 flops    36 x    26 x    32            234823680     100.0%      0.0%      0.0%
 flops    36 x    32 x    26            234823680     100.0%      0.0%      0.0%
 flops    46 x    32 x    36            240371712     100.0%      0.0%      0.0%
 flops     5 x    26 x     5            247747500     100.0%      0.0%      0.0%
 flops    26 x    32 x    36            249080832     100.0%      0.0%      0.0%
 flops    32 x    26 x    36            249080832     100.0%      0.0%      0.0%
 flops    32 x    32 x    44            249790464     100.0%      0.0%      0.0%
 flops    49 x    32 x    41            259209216     100.0%      0.0%      0.0%
 flops    36 x    26 x    41            270781056     100.0%      0.0%      0.0%
 flops    32 x    32 x    41            310345728     100.0%      0.0%      0.0%
 flops    31 x    32 x    36            323979264     100.0%      0.0%      0.0%
 flops    62 x    32 x    36            323979264     100.0%      0.0%      0.0%
 flops    13 x     5 x    32            336044800     100.0%      0.0%      0.0%
 flops     5 x    13 x    32            336627200     100.0%      0.0%      0.0%
 flops    13 x    13 x    26            387550800     100.0%      0.0%      0.0%
 flops    41 x    32 x    36            428488704     100.0%      0.0%      0.0%
 flops    49 x    32 x    36            512096256     100.0%      0.0%      0.0%
 flops    36 x    26 x    36            534957696     100.0%      0.0%      0.0%
 flops    36 x    32 x    44            536481792     100.0%      0.0%      0.0%
 flops    36 x    32 x    32            578027520     100.0%      0.0%      0.0%
 flops     5 x    32 x     5            609840000     100.0%      0.0%      0.0%
 flops    32 x    32 x    36            613122048     100.0%      0.0%      0.0%
 flops    36 x    32 x    41            666537984     100.0%      0.0%      0.0%
 flops     5 x    26 x    13            683182500     100.0%      0.0%      0.0%
 flops    13 x    26 x     5            683182500     100.0%      0.0%      0.0%
 flops    13 x    13 x    32            953971200     100.0%      0.0%      0.0%
 flops    36 x    32 x    36           1316818944     100.0%      0.0%      0.0%
 flops     5 x    32 x    13           1681680000     100.0%      0.0%      0.0%
 flops    13 x    32 x     5           1681680000     100.0%      0.0%      0.0%
 flops    13 x    26 x    13           1883927500     100.0%      0.0%      0.0%
 flops    13 x    32 x    13           4637360000     100.0%      0.0%      0.0%
 flops inhomo. stacks                           0       0.0%      0.0%      0.0%
 flops total                        28.865548E+09     100.0%      0.0%      0.0%
 flops max/rank                      1.458503E+09     100.0%      0.0%      0.0%
 matmuls inhomo. stacks                         0       0.0%      0.0%      0.0%
 matmuls total                            3099789     100.0%      0.0%      0.0%
 number of processed stacks                896973     100.0%      0.0%      0.0%
 average stack size                                     3.5       0.0       0.0
 marketing flops                    31.361663E+09
 -------------------------------------------------------------------------------
 # multiplications                           1183
 max memory usage/rank               1.556451E+09
 # max total images/rank                        2
 # max 3D layers                                1
 # MPI messages exchanged                 4391296
 MPI messages size (bytes):
  total size                        20.240087E+09
  min size                           0.000000E+00
  max size                          28.864000E+03
  average size                       4.609138E+03
 MPI breakdown and total messages size (bytes):
             size <=      128             3241651                        0
       128 < size <=     8192              143724               1055643456
      8192 < size <=    32768             1005921              19184485152
     32768 < size <=   131072                   0                        0
    131072 < size <=  4194304                   0                        0
   4194304 < size <= 16777216                   0                        0
  16777216 < size                               0                        0
 -------------------------------------------------------------------------------

 *** WARNING in dbcsr_mm.F:294 :: Using a non-square number of MPI ranks ***
 *** might lead to poor performance. Used ranks: 128 Suggested: 121 256  ***

 -------------------------------------------------------------------------------
 -                                                                             -
 -                      DBCSR MESSAGE PASSING PERFORMANCE                      -
 -                                                                             -
 -------------------------------------------------------------------------------
 ROUTINE             CALLS      AVE VOLUME [Bytes]
 MP_Bcast              111                     12.
 MP_Allreduce         6393                      9.
 MP_Alltoall          5138                  26679.
 MP_ISend            74522                   3715.
 MP_IRecv            74060                   3465.
 -------------------------------------------------------------------------------

 -------------------------------------------------------------------------------
 -                                                                             -
 -                                GRID STATISTICS                              -
 -                                                                             -
 -------------------------------------------------------------------------------
 LP    KERNEL             BACKEND                              COUNT     PERCENT
 3     collocate ortho    REF                                2011617      23.62%
 3     integrate ortho    REF                                1895166      22.25%
 4     integrate ortho    REF                                1309573      15.38%
 4     collocate ortho    REF                                1221819      14.35%
 2     collocate ortho    REF                                 963552      11.31%
 2     integrate ortho    REF                                 856494      10.06%
 5     integrate ortho    REF                                 135755       1.59%
 0     collocate general  REF                                  60928       0.72%
 1     integrate general  REF                                  60928       0.72%
 -------------------------------------------------------------------------------

 MEMORY| Estimated peak process memory [MiB]                                1567

 -------------------------------------------------------------------------------
 -                                                                             -
 -                         MESSAGE PASSING PERFORMANCE                         -
 -                                                                             -
 -------------------------------------------------------------------------------

 ROUTINE             CALLS      AVE VOLUME [Bytes]
 MP_Group                8
 MP_Bcast             6940               10608668.
 MP_Allreduce         2412                1704017.
 MP_Sync                54
 MP_Alltoall          1344                9769794.
 MP_ISendRecv        32004                  32000.
 MP_Wait             44485
 MP_comm_split          21
 MP_ISend            11347                 236143.
 MP_IRecv            11172                 239305.
 MP_Recv                98                  29760.
 -------------------------------------------------------------------------------


 -------------------------------------------------------------------------------
 -                                                                             -
 -                           R E F E R E N C E S                               -
 -                                                                             -
 -------------------------------------------------------------------------------
 
 CP2K version 8.2, the CP2K developers group (2021).
 CP2K is freely available from https://www.cp2k.org/ .

 Kuehne,Thomas D.; Iannuzzi,Marcella; Del Ben,Mauro;
 Rybkin,Vladimir V.; Seewald,Patrick; Stein,Frederick; Laino,Teodoro;
 Khaliullin,Rustam Z.; Schuett,Ole; Schiffmann,Florian; Golze,Dorothea;
 Wilhelm,Jan; Chulkov,Sergey; Bani-Hashemian,Mohammad Hossein;
 Weber,Valery; Borstnik,Urban; Taillefumier,Mathieu;
 Jakobovits,Alice Shoshana; Lazzaro,Alfio; Pabst,Hans; Mueller,Tiziano;
 Schade,Robert; Guidon,Manuel; Andermatt,Samuel; Holmberg,Nico;
 Schenter,Gregory K.; Hehn,Anna; Bussy,Augustin; Belleflamme,Fabian;
 Tabacchi,Gloria; Gloess,Andreas; Lass,Michael; Bethune,Iain;
 Mundy,Christopher J.; Plessl,Christian; Watkins,Matt;
 VandeVondele,Joost; Krack,Matthias; Hutter,Juerg. 
 The Journal of Chemical Physics, 152 (19), (2020). 
 CP2K: An electronic structure and molecular dynamics software package -
 Quickstep: Efficient and accurate electronic structure calculations.
 https://doi.org/10.1063/5.0007045

 Schuett, Ole; Messmer, Peter; Hutter, Juerg; VandeVondele, Joost. 
 Electronic Structure Calculations on Graphics Processing Units, John
 Wiley & Sons, Ltd, 173-190 (2016). 
 GPU-Accelerated Sparse Matrix-Matrix Multiplication for
 Linear Scaling Density Functional Theory.
 https://doi.org/10.1002/9781118670712.ch8

 Borstnik, U; VandeVondele, J; Weber, V; Hutter, J. 
 PARALLEL COMPUTING, 40 (5-6), 47-58 (2014). 
 Sparse matrix multiplication: The distributed block-compressed sparse
 row library.
 https://doi.org/10.1016/j.parco.2014.03.012

 Hutter, J; Iannuzzi, M; Schiffmann, F; VandeVondele, J. 
 WIREs Comput Mol Sci., 4 (1), 15-25 (2014). 
 CP2K: atomistic simulations of condensed matter systems.
 https://doi.org/10.1002/wcms.1159

 Marek, A; Blum, V; Johanni, R; Havu, V; Lang, B; Auckenthaler, T;
 Heinecke, A; Bungartz, H; Lederer, H. 
 Journal of Physics: Condensed Matter, 26 (21), (2014). 
 The ELPA library: scalable parallel eigenvalue solutions for
 electronic structure
 theory and computational science.
 https://doi.org/10.1088/0953-8984/26/21/213201

 VandeVondele, J; Hutter, J. 
 JOURNAL OF CHEMICAL PHYSICS, 127 (11), 114105 (2007). 
 Gaussian basis sets for accurate calculations on molecular systems in
 gas and condensed phases.
 https://doi.org/10.1063/1.2770708

 Kuhne, TD; Krack, M; Mohamed, FR; Parrinello, M. 
 PHYSICAL REVIEW LETTERS, 98 (6), 066401 (2007). 
 Efficient and accurate Car-Parrinello-like approach to
 Born-Oppenheimer molecular dynamics.
 https://doi.org/10.1103/PhysRevLett.98.066401

 Laino, T; Mohamed, F; Laio, A; Parrinello, M. 
 JOURNAL OF CHEMICAL THEORY AND COMPUTATION, 2 (5), 1370-1378 (2006). 
 An efficient linear-scaling electrostatic coupling for treating
 periodic boundary conditions in QM/MM simulations.
 https://doi.org/10.1021/ct6001169

 Laino, T; Mohamed, F; Laio, A; Parrinello, M. 
 JOURNAL OF CHEMICAL THEORY AND COMPUTATION, 1 (6), 1176-1184 (2005). 
 An efficient real space multigrid QM/MM electrostatic coupling.
 https://doi.org/10.1021/ct050123f

 Krack, M. 
 THEORETICAL CHEMISTRY ACCOUNTS, 114 (1-3), 145-152 (2005). 
 Pseudopotentials for H to Kr optimized for gradient-corrected
 exchange-correlation functionals.
 https://doi.org/10.1007/s00214-005-0655-y

 VandeVondele, J; Krack, M; Mohamed, F; Parrinello, M; Chassaing, T;
 Hutter, J. COMPUTER PHYSICS COMMUNICATIONS, 167 (2), 103-128 (2005). 
 QUICKSTEP: Fast and accurate density functional calculations using a
 mixed Gaussian and plane waves approach.
 https://doi.org/10.1016/j.cpc.2004.12.014

 Frigo, M; Johnson, SG. 
 PROCEEDINGS OF THE IEEE, 93 (2), 216-231 (2005). 
 The design and implementation of FFTW3.
 https://doi.org/10.1109/JPROC.2004.840301

 Kolafa, J. 
 JOURNAL OF COMPUTATIONAL CHEMISTRY, 25 (3), 335-342 (2004). 
 Time-reversible always stable predictor-corrector method for molecular dynamics of polarizable molecules.
 https://doi.org/10.1002/jcc.10385

 VandeVondele, J; Hutter, J. 
 JOURNAL OF CHEMICAL PHYSICS, 118 (10), 4365-4369 (2003). 
 An efficient orbital transformation method for electronic structure
 calculations.
 https://doi.org/10.1063/1.1543154

 Hartwigsen, C; Goedecker, S; Hutter, J. 
 PHYSICAL REVIEW B, 58 (7), 3641-3662 (1998). 
 Relativistic separable dual-space Gaussian pseudopotentials from H to Rn.
 https://doi.org/10.1103/PhysRevB.58.3641

 Lippert, G; Hutter, J; Parrinello, M. 
 MOLECULAR PHYSICS, 92 (3), 477-487 (1997). 
 A hybrid Gaussian and plane wave density functional scheme.
 https://doi.org/10.1080/002689797170220

 Perdew, JP; Burke, K; Ernzerhof, M. 
 PHYSICAL REVIEW LETTERS, 77 (18), 3865-3868 (1996). 
 Generalized gradient approximation made simple.
 https://doi.org/10.1103/PhysRevLett.77.3865

 Goedecker, S; Teter, M; Hutter, J. 
 PHYSICAL REVIEW B, 54 (3), 1703-1710 (1996). 
 Separable dual-space Gaussian pseudopotentials.
 https://doi.org/10.1103/PhysRevB.54.1703

 ESSMANN, U; PERERA, L; BERKOWITZ, ML; DARDEN, T; LEE, H; PEDERSEN, LG. 
 JOURNAL OF CHEMICAL PHYSICS, 103 (19), 8577-8593 (1995). 
 A SMOOTH PARTICLE MESH EWALD METHOD.
 https://doi.org/10.1063/1.470117

 BLOCHL, PE. 
 JOURNAL OF CHEMICAL PHYSICS, 103 (17), 7422-7428 (1995). 
 ELECTROSTATIC DECOUPLING OF PERIODIC IMAGES OF PLANE-WAVE-EXPANDED
 DENSITIES AND DERIVED ATOMIC POINT CHARGES.
 https://doi.org/10.1063/1.470314


 -------------------------------------------------------------------------------
 -                                                                             -
 -                                T I M I N G                                  -
 -                                                                             -
 -------------------------------------------------------------------------------
 SUBROUTINE                       CALLS  ASD         SELF TIME        TOTAL TIME
                                MAXIMUM       AVERAGE  MAXIMUM  AVERAGE  MAXIMUM
 CP2K                                 1  1.0    0.273    0.294  253.934  253.935
 qs_mol_dyn_low                       1  2.0    0.015    0.017  207.891  209.541
 velocity_verlet                      6  3.0    0.062    0.081  178.000  178.022
 qmmm_forces                          7  3.9    0.060    0.062   86.059   86.061
 qmmm_forces_with_gaussian            7  4.9    2.392    2.419   84.916   85.659
 qmmm_el_coupling                     7  3.9    0.000    0.000   67.528   67.749
 qmmm_elec_with_gaussian              7  4.9    1.953    2.111   67.522   67.745
 qs_forces                            7  3.9    0.001    0.002   46.422   46.423
 qmmm_env_create                      1  2.0    7.927    8.063   44.076   44.078
 qs_energies                          7  4.9    0.001    0.001   42.289   42.301
 pw_restrict_s3                      21  5.9    9.272    9.437   40.320   40.646
 scf_env_do_scf                       7  5.9    0.000    0.000   39.726   39.727
 pw_integral_ab                    2967  7.5   34.628   35.790   34.873   36.034
 scf_env_do_scf_inner_loop           56  6.9    0.001    0.003   35.733   35.743
 fist_init                            1  3.0    0.000    0.000   31.940   31.941
 qmmm_force_with_gaussian_low         7  5.9    0.000    0.000   31.071   31.749
 rebuild_ks_matrix                   63  8.6    0.000    0.001   30.572   30.580
 qs_ks_build_kohn_sham_matrix        63  9.6    0.011    0.015   30.571   30.580
 qmmm_elec_with_gaussian:spline       7  5.9    0.000    0.000   29.796   30.018
 pw_prolongate_s3                    21  6.9    6.862    7.028   29.796   30.018
 qmmm_forces_gaussian_low_R           7  6.9    0.000    0.000   25.986   26.652
 qmmm_forces_with_gaussian_LG         7  7.9   25.986   26.652   25.986   26.652
 qs_ks_update_qs_env                 63  7.9    0.001    0.001   26.610   26.618
 mp_sum_dm3                          38  5.7   24.582   25.321   24.582   25.321
 qmmm_elec_with_gaussian_low          7  5.9    0.000    0.000   22.385   23.539
 pw_transfer                       1337 12.1    0.121    0.151   19.804   20.994
 fft_wrap_pw1pw2                   1113 13.2    0.013    0.016   19.396   20.586
 qmmm_elec_gaussian_low_R             7  6.9    0.000    0.000   18.777   19.990
 qmmm_elec_with_gaussian_LG           7  7.9   18.777   19.989   18.777   19.989
 fft_wrap_pw1pw2_200                707 14.4    1.655    1.974   17.822   19.100
 force_field_control                  1  4.0    0.000    0.000   17.432   17.665
 fft3d_ps                          1113 15.2    6.477    7.325   15.715   17.015
 rdparm_amber_8                       2  6.5   12.914   13.190   15.478   15.701
 qs_vxc_create                       63 10.6    0.002    0.003   15.381   15.384
 xc_vxc_pw_create                    63 11.6    0.256    0.329   15.380   15.382
 topology_control                     1  4.0    0.000    0.000   14.282   14.453
 qs_rho_update_rho                   63  8.0    0.001    0.001   12.727   12.734
 calculate_rho_elec                  63  9.0    0.061    0.077   12.726   12.733
 sum_up_and_integrate                63 10.6    0.064    0.079   11.254   11.270
 integrate_v_rspace                  63 11.6    0.002    0.003   11.190   11.209
 rs_pw_transfer                     546 11.9    0.010    0.012   10.107   11.200
 density_rs2pw                       63 10.0    0.003    0.004    9.405   10.472
 force_field_pack                     1  5.0    0.009    0.012   10.225   10.432
 mp_alltoall_z22v                  1113 17.2    7.945    9.916    7.945    9.916
 pw_zero                           2442  7.3    8.800    9.433    8.800    9.433
 connectivity_control                 2  4.0    0.000    0.001    8.564    8.576
 pw_axpy                           1914  8.3    7.766    8.474    7.766    8.474
 xc_rho_set_and_dset_create          63 12.6    0.128    0.141    7.297    8.415
 read_connectivity_amber              1  6.0    0.000    0.000    8.392    8.403
 grid_collocate_task_list            63 10.0    3.141    7.323    3.141    7.323
 read_force_field_amber               1  5.0    0.011    0.012    7.097    7.321
 yz_to_x                            518 15.8    0.356    0.446    5.529    7.313
 mp_waitany                       11172 13.7    5.750    7.142    5.750    7.142
 force_field_pack_splines             2  6.0    0.013    0.017    6.718    6.781
 get_nonbond_storage                  2  7.0    0.222    0.239    6.494    6.556
 set_potparm_index                  602  8.0    0.326    0.333    6.272    6.339
 rs_pw_transfer_RS2PW_200            70 11.8    0.819    1.103    4.936    6.159
 init_genpot                        604  9.0    5.964    6.025    5.964    6.025
 grid_integrate_task_list            63 12.6    0.720    5.594    0.720    5.594
 potential_pw2rs                     63 12.6    0.006    0.007    5.567    5.585
 rs_gather_matrices                  63 12.6    0.002    0.018    4.899    5.399
 mp_alltoall_d11v                  1417 13.5    4.928    5.393    4.928    5.393
 qmmm_forces_gaussian_low_G           7  6.9    5.084    5.199    5.084    5.199
 -------------------------------------------------------------------------------

 The number of warnings for this run is : 1
 
 -------------------------------------------------------------------------------
  **** **** ******  **  PROGRAM ENDED AT                 2021-08-31 15:11:56.656
 ***** ** ***  *** **   PROGRAM RAN ON                                 nid001142
 **    ****   ******    PROGRAM RAN BY                                     hjbio
 ***** **    ** ** **   PROGRAM PROCESS ID                                236996
  **** **  *******  **  PROGRAM STOPPED IN /lus/cls01095/work/d118/d118/hjbio/qm
                                           mm-benchmarking/archer2/CPU/cp2kMD/CB
                                           D_PHY/6STEPS/2NODES/128CPN/2THREADS
