 DBCSR| CPU Multiplication driver                                           BLAS
 DBCSR| Multrec recursion limit                                              512
 DBCSR| Multiplication stack size                                           1000
 DBCSR| Maximum elements for images                                    UNLIMITED
 DBCSR| Multiplicative factor virtual images                                   1
 DBCSR| Use multiplication densification                                       T
 DBCSR| Multiplication size stacks                                             3
 DBCSR| Use memory pool for CPU allocation                                     F
 DBCSR| Number of 3D layers                                               SINGLE
 DBCSR| Use MPI memory allocation                                              F
 DBCSR| Use RMA algorithm                                                      F
 DBCSR| Use Communication thread                                               T
 DBCSR| Communication thread load                                             60
 DBCSR| MPI: My node id                                                        0
 DBCSR| MPI: Number of nodes                                                   8
 DBCSR| OMP: Current number of threads                                         8
 DBCSR| OMP: Max number of threads                                             8
 DBCSR| Split modifier for TAS multiplication algorithm                  1.0E+00


  **** **** ******  **  PROGRAM STARTED AT               2021-08-31 17:17:42.083
 ***** ** ***  *** **   PROGRAM STARTED ON                             nid002001
 **    ****   ******    PROGRAM STARTED BY                                 hjbio
 ***** **    ** ** **   PROGRAM PROCESS ID                                185786
  **** **  *******  **  PROGRAM STARTED IN /lus/cls01095/work/d118/d118/hjbio/qm
                                           mm-benchmarking/archer2/CPU/cp2kMD/CB
                                           D_PHY-PBE0/6STEPS/1NODES/64CPN/8THREA
                                           DS

 CP2K| version string:                                          CP2K version 8.2
 CP2K| source code revision number:                                  git:310b7ab
 CP2K| cp2kflags: omp libint fftw3 libxc elpa parallel mpi3 scalapack plumed2   
 CP2K| is freely available from                            https://www.cp2k.org/
 CP2K| Program compiled at                          Thu 10 Jun 17:43:51 BST 2021
 CP2K| Program compiled on                                                 uan01
 CP2K| Program compiled for                                              ARCHER2
 CP2K| Data directory path              /work/d118/d118/hjbio/CP2K/cp2k-8.2/data
 CP2K| Input file name                                          CBD_PHY-cp2k.inp

 GLOBAL| Force Environment number                                              1
 GLOBAL| Basis set file name                                           HFX_BASIS
 GLOBAL| Potential file name                                           POTENTIAL
 GLOBAL| MM Potential file name                                     MM_POTENTIAL
 GLOBAL| Coordinate file name                                        CBD_PHY.pdb
 GLOBAL| Method name                                                        CP2K
 GLOBAL| Project name                                               CBD_PHY-PBE0
 GLOBAL| Run type                                                             MD
 GLOBAL| FFT library                                                       FFTW3
 GLOBAL| Diagonalization library                                            ELPA
 GLOBAL| Minimum number of eigenvectors for ELPA usage                        16
 GLOBAL| Orthonormality check for eigenvectors                          DISABLED
 GLOBAL| Matrix multiplication library                                    SCALAP
 GLOBAL| All-to-all communication in single precision                          F
 GLOBAL| FFTs using library dependent lengths                                  F
 GLOBAL| Grid backend                                                       AUTO
 GLOBAL| Global print level                                                  LOW
 GLOBAL| MPI I/O enabled                                                       T
 GLOBAL| Total number of message passing processes                             8
 GLOBAL| Number of threads for this process                                    8
 GLOBAL| This output is from process                                           0
 GLOBAL| CPU model name                          AMD EPYC 7742 64-Core Processor
 GLOBAL| CPUID                                                              1002

 MEMORY| system memory details [Kb]
 MEMORY|                        rank 0           min           max       average
 MEMORY| MemTotal            263568576     263568576     263568576     263568576
 MEMORY| MemFree             249580088     249580088     249580088     249580088
 MEMORY| Buffers                281920        281920        281920        281920
 MEMORY| Cached                5101428       5101428       5101428       5101428
 MEMORY| Slab                  1972504       1972504       1972504       1972504
 MEMORY| SReclaimable           220444        220444        220444        220444
 MEMORY| MemLikelyFree       255183880     255183880     255183880     255183880



                      ************* ******** ***********   
                     ************* **********************  
                     ****     **** ****      ***********   
                     ******** ****  *******     ****       
                     *******  ****   *******   ****        
                     ****     ****       ****  ****        
                     ****     **** **********  ****        
                      ****     **** ********    ****       
                     FRONTIERS IN SIMULATION TECHNOLOGY    
                                                           
                        C.J. Mundy, S. Balasubramanian,    
                     Ken Bagchi, J. Hutter, Ari Seitsonen  
                      IFW Kuo, T. Laino, J. VandeVondele   
                                 Version 1.0               

                                                           


 EWALD| Summation is done by:                                               SPME
 EWALD| Alpha parameter [       ANGSTROM^-1]                              0.4000
 EWALD| Real Space Cutoff [          ANGSTROM]                            8.4348
 EWALD| G-space max. Miller index                         80        80        80
 EWALD| Spline interpolation order                                             6

 FORCEFIELD| WARNING: A non Critical ForceField parameter is missing! CP2K GOES!
 FORCEFIELD| Non critical parameters are:Urey-Bradley,Torsions,Impropers, Opbends and 1-4
 FORCEFIELD| All missing parameters will not contribute to the potential energy!
 FORCEFIELD| Activate the print key FF_INFO to have a list of missing parameters

 CHARGE_INFO| Total Charge of the Classical System:                    -0.825808

 SPLINE_INFO| Generating 101926 splines for NONBONDED14 interactions 
              Due to 451 different atomic kinds
  ...10192  ...20384  ...30576  ...40768  ...50960  ...61152  ...71344  ...81536  ...91728  ...101920
 SPLINE_INFO| Number of unique splines computed:            301
 SPLINE_INFO| Done

 SPLINE_INFO| Generating 101926 splines for NONBONDED interactions 
              Due to 451 different atomic kinds
  ...10192  ...20384  ...30576  ...40768  ...50960  ...61152  ...71344  ...81536  ...91728  ...101920
 SPLINE_INFO| Number of unique splines computed:            301
 SPLINE_INFO| Done

 *******************************************************************************
 *******************************************************************************
 **                                                                           **
 **     #####                         ##              ##                      **
 **    ##   ##            ##          ##              ##                      **
 **   ##     ##                       ##            ######                    **
 **   ##     ##  ##   ##  ##   #####  ##  ##   ####   ##    #####    #####    **
 **   ##     ##  ##   ##  ##  ##      ## ##   ##      ##   ##   ##  ##   ##   **
 **   ##  ## ##  ##   ##  ##  ##      ####     ###    ##   ######   ######    **
 **    ##  ###   ##   ##  ##  ##      ## ##      ##   ##   ##       ##        **
 **     #######   #####   ##   #####  ##  ##  ####    ##    #####   ##        **
 **           ##                                                    ##        **
 **                                                                           **
 **                                                ... make the atoms dance   **
 **                                                                           **
 **            Copyright (C) by CP2K developers group (2000-2021)             **
 **                      J. Chem. Phys. 152, 194103 (2020)                    **
 **                                                                           **
 *******************************************************************************


 TOTAL NUMBERS AND MAXIMUM NUMBERS

  Total number of            - Atomic kinds:                                   5
                             - Atoms:                                         68
                             - Shell sets:                                   340
                             - Shells:                                       445
                             - Primitive Cartesian functions:                476
                             - Cartesian basis functions:                   1137
                             - Spherical basis functions:                   1067

  Maximum angular momentum of- Orbital basis functions:                        2
                             - Local part of the GTH pseudopotential:          2
                             - Non-local part of the GTH pseudopotential:      0


 SCF PARAMETERS         Density guess:                                   RESTART
                        --------------------------------------------------------
                        max_scf:                                              30
                        max_scf_history:                                       0
                        max_diis:                                              4
                        --------------------------------------------------------
                        eps_scf:                                        1.00E-06
                        eps_scf_history:                                0.00E+00
                        eps_diis:                                       1.00E-01
                        eps_eigval:                                     1.00E-05
                        --------------------------------------------------------
                        level_shift [a.u.]:                                 0.00
                        --------------------------------------------------------
                        Outer loop SCF in use 
                        No variables optimised in outer loop
                        eps_scf                                         1.00E-06
                        max_scf                                               20
                        No outer loop optimization
                        step_size                                       5.00E-01

 *******************************************************************************
 *******************************************************************************
 **                                                                           **
 **             #######  ##     ## ##     ## ##     ##                        **
 **            ##     ## ###   ### ###   ### ###   ###                        **
 **            ##     ## #### #### #### #### #### ####                        **
 **            ##     ## ## ### ## ## ### ## ## ### ##                        **
 **            ##  ## ## ##     ## ##     ## ##     ##                        **
 **            ##    ##  ##     ## ##     ## ##     ##  T.Laino and F.Mohamed **
 **             ##### ## ##     ## ##     ## ##     ##  2005 - 2015           **
 **                                                                           **
 **                                                     Calculation Started.. **
 *******************************************************************************
 *******************************************************************************

 MD_PAR| Molecular dynamics protocol (MD input parameters)
 MD_PAR| Ensemble type                                                       NVE
 MD_PAR| Number of time steps                                                  6
 MD_PAR| Time step [fs]                                                 1.000000
 MD_PAR| Temperature [K]                                              300.000000
 MD_PAR| Temperature tolerance [K]                                      0.000000
 MD_PAR| Print MD information every                                    1 step(s)
 MD_PAR| File type   Print frequency [steps]                          File names
 MD_PAR| Coordinates          1                           CBD_PHY-PBE0-pos-1.xyz
 MD_PAR| Velocities           1                           CBD_PHY-PBE0-vel-1.xyz
 MD_PAR| Energies             1                              CBD_PHY-PBE0-1.ener
 MD_PAR| Dump                20                           CBD_PHY-PBE0-1.restart

 ROT| Rotational analysis information
 ROT| Principal axes and moments of inertia [a.u.]
 ROT|                           1                   2                   3
 ROT| Eigenvalues      1.56283164001E+13   1.56407408488E+13   1.56663418804E+13
 ROT|      x              0.901637047331     -0.018153263569      0.432112362589
 ROT|      y              0.323714777231      0.690893927917     -0.646431994388
 ROT|      z             -0.286808957117      0.722728191915      0.628812040859
 ROT| Number of rotovibrational vectors                                        6

 DOF| Calculation of degrees of freedom
 DOF| Number of atoms                                                     167923
 DOF| Number of intramolecular constraints                                     0
 DOF| Number of intermolecular constraints                                     0
 DOF| Invariants (translations + rotations)                                    3
 DOF| Degrees of freedom                                                  503766

 DOF| Restraints information
 DOF| Number of intramolecular restraints                                      0
 DOF| Number of intermolecular restraints                                      0

 MD_VEL| Velocities initialization
 MD_VEL| Initial temperature [K]                                      300.000000
 MD_VEL| COM velocity            -0.0000000000     0.0000000000     0.0000000000

  Translating the system in order to center the QM fragment in the QM box.

 Number of electrons:                                                        180
 Number of occupied orbitals:                                                 90
 Number of molecular orbitals:                                                90

 Number of orbital functions:                                               1067
 Number of independent orbital functions:                                   1067

 Extrapolation method: initial_guess


 SCF WAVEFUNCTION OPTIMIZATION

  ----------------------------------- OT ---------------------------------------
  Minimizer      : DIIS                : direct inversion
                                         in the iterative subspace
                                         using   7 DIIS vectors
                                         safer DIIS on
  Preconditioner : FULL_ALL            : diagonalization, state selective
  Precond_solver : DEFAULT
  stepsize       :    0.15000000                  energy_gap     :    0.08000000
  eps_taylor     :   0.10000E-15                  max_taylor     :             4
  ----------------------------------- OT ---------------------------------------

  Step     Update method      Time    Convergence         Total energy    Change
  ------------------------------------------------------------------------------
  Decoupling Energy:                                               0.0370647021
  Recoupling Energy:                                              -0.0063741479
     1 OT DIIS     0.15E+00   20.9     0.00129057      -255.9257316521 -2.56E+02
  Decoupling Energy:                                               0.0370576004
  Recoupling Energy:                                              -0.0063740314
     2 OT DIIS     0.15E+00    8.6     0.00057761      -255.9419521977 -1.62E-02
  Decoupling Energy:                                               0.0369596417
  Recoupling Energy:                                              -0.0063730135
     3 OT DIIS     0.15E+00    8.6     0.00038348      -255.9451217318 -3.17E-03
  Decoupling Energy:                                               0.0369795470
  Recoupling Energy:                                              -0.0063732416
     4 OT DIIS     0.15E+00    8.6     0.00009866      -255.9458275768 -7.06E-04
  Decoupling Energy:                                               0.0369716948
  Recoupling Energy:                                              -0.0063731487
     5 OT DIIS     0.15E+00    8.6     0.00003992      -255.9458779686 -5.04E-05
  Decoupling Energy:                                               0.0369737640
  Recoupling Energy:                                              -0.0063731649
     6 OT DIIS     0.15E+00    8.6     0.00001793      -255.9458894170 -1.14E-05
  Decoupling Energy:                                               0.0369741808
  Recoupling Energy:                                              -0.0063731680
     7 OT DIIS     0.15E+00    8.6     0.00000621      -255.9458922938 -2.88E-06
  Decoupling Energy:                                               0.0369727127
  Recoupling Energy:                                              -0.0063731518
     8 OT DIIS     0.15E+00    8.6     0.00000242      -255.9458926328 -3.39E-07
  Decoupling Energy:                                               0.0369731061
  Recoupling Energy:                                              -0.0063731556
     9 OT DIIS     0.15E+00    8.6     0.00000111      -255.9458926822 -4.94E-08
  Decoupling Energy:                                               0.0369728228
  Recoupling Energy:                                              -0.0063731526
    10 OT DIIS     0.15E+00    8.6     0.00000048      -255.9458926924 -1.02E-08

  *** SCF run converged in    10 steps ***


  Electronic density on regular grids:       -179.9999999999        0.0000000001
  Core density on regular grids:              180.9999999999       -0.0000000001
  Total charge density on r-space grids:        1.0000000000
  Total charge density g-space grids:           1.0000000000

  Overlap energy of the core charge distribution:               0.00001951532734
  Self energy of the core charge distribution:               -615.71576003586028
  Core Hamiltonian energy:                                    191.01363220817845
  Hartree energy:                                             248.20663869015897
  Exchange-correlation energy:                                -61.38430761263390
  Hartree-Fock Exchange energy:                               -18.10821018492842
  QM/MM Electrostatic energy:                                   0.04209472735415

  Total energy:                                              -255.94589269240365

  outer SCF iter =    1 RMS gradient =   0.48E-06 energy =       -255.9458926924
  outer SCF loop converged in   1 iterations or   10 steps

  Decoupling Energy:                                               0.0369728028
  Recoupling Energy:                                              -0.0063731523

 ENERGY| Total FORCE_EVAL ( QMMM ) energy [a.u.]:          -1088.110859625311832

 MD_INI| MD initialization
 MD_INI| Potential energy [hartree]                          -0.108811085963E+04
 MD_INI| Total kinetic energy [hartree]                       0.239300084734E+03
 MD_INI| QM kinetic energy [hartree]                          0.106639360339E+00
 MD_INI| Total temperature [K]                                        300.000000
 MD_INI| QM temperature [K]                                           330.137318
 MD_INI| Cell volume [bohr^3]                                 1.137316355424E+07
 MD_INI| Cell volume [ang^3]                                  1.685328937712E+06
 MD_INI| Cell lengths [bohr]      2.24884969E+02  2.24884969E+02  2.24884969E+02
 MD_INI| Cell lengths [ang]       1.19004000E+02  1.19004000E+02  1.19004000E+02
 MD_INI| Cell angles [deg]        9.00000000E+01  9.00000000E+01  9.00000000E+01

  Translating the system in order to center the QM fragment in the QM box.

 Number of electrons:                                                        180
 Number of occupied orbitals:                                                 90
 Number of molecular orbitals:                                                90

 Number of orbital functions:                                               1067
 Number of independent orbital functions:                                   1067

 Extrapolation method: ASPC


 SCF WAVEFUNCTION OPTIMIZATION

  ----------------------------------- OT ---------------------------------------
  Minimizer      : DIIS                : direct inversion
                                         in the iterative subspace
                                         using   7 DIIS vectors
                                         safer DIIS on
  Preconditioner : FULL_ALL            : diagonalization, state selective
  Precond_solver : DEFAULT
  stepsize       :    0.15000000                  energy_gap     :    0.08000000
  eps_taylor     :   0.10000E-15                  max_taylor     :             4
  ----------------------------------- OT ---------------------------------------

  Step     Update method      Time    Convergence         Total energy    Change
  ------------------------------------------------------------------------------
  Decoupling Energy:                                               0.0370014667
  Recoupling Energy:                                              -0.0063734172
     1 OT DIIS     0.15E+00   17.3     0.00075899      -255.7182133678 -2.56E+02
  Decoupling Energy:                                               0.0370082385
  Recoupling Energy:                                              -0.0063735355
     2 OT DIIS     0.15E+00    8.8     0.00032685      -255.7237312470 -5.52E-03
  Decoupling Energy:                                               0.0370087411
  Recoupling Energy:                                              -0.0063735590
     3 OT DIIS     0.15E+00    8.7     0.00019068      -255.7247685780 -1.04E-03
  Decoupling Energy:                                               0.0370199882
  Recoupling Energy:                                              -0.0063736817
     4 OT DIIS     0.15E+00    8.7     0.00006054      -255.7249610150 -1.92E-04
  Decoupling Energy:                                               0.0370216762
  Recoupling Energy:                                              -0.0063737045
     5 OT DIIS     0.15E+00    8.7     0.00001954      -255.7249775797 -1.66E-05
  Decoupling Energy:                                               0.0370210004
  Recoupling Energy:                                              -0.0063736984
     6 OT DIIS     0.15E+00    8.7     0.00000817      -255.7249798380 -2.26E-06
  Decoupling Energy:                                               0.0370221929
  Recoupling Energy:                                              -0.0063737124
     7 OT DIIS     0.15E+00    8.7     0.00000308      -255.7249803001 -4.62E-07
  Decoupling Energy:                                               0.0370222381
  Recoupling Energy:                                              -0.0063737132
     8 OT DIIS     0.15E+00    8.7     0.00000136      -255.7249803774 -7.72E-08
  Decoupling Energy:                                               0.0370224658
  Recoupling Energy:                                              -0.0063737159
     9 OT DIIS     0.15E+00    8.7     0.00000058      -255.7249803931 -1.57E-08

  *** SCF run converged in     9 steps ***


  Electronic density on regular grids:       -180.0000000000        0.0000000000
  Core density on regular grids:              180.9999999999       -0.0000000001
  Total charge density on r-space grids:        0.9999999999
  Total charge density g-space grids:           0.9999999999

  Overlap energy of the core charge distribution:               0.00002422739645
  Self energy of the core charge distribution:               -615.71576003586028
  Core Hamiltonian energy:                                    191.21095009976324
  Hartree energy:                                             248.07774799201775
  Exchange-correlation energy:                                -61.42683493533109
  Hartree-Fock Exchange energy:                               -18.12283148156153
  QM/MM Electrostatic energy:                                   0.25172374050519

  Total energy:                                              -255.72498039307027

  outer SCF iter =    1 RMS gradient =   0.58E-06 energy =       -255.7249803931
  outer SCF loop converged in   1 iterations or    9 steps

  Decoupling Energy:                                               0.0370224943
  Recoupling Energy:                                              -0.0063737164

 ENERGY| Total FORCE_EVAL ( QMMM ) energy [a.u.]:          -1059.962356563455160

 MD| ***************************************************************************
 MD| Step number                                                               1
 MD| Time [fs]                                                          1.000000
 MD| Conserved quantity [hartree]                            -0.841461427179E+03
 MD| ---------------------------------------------------------------------------
 MD|                                          Instantaneous             Averages
 MD| CPU time per MD step [s]                    379.798518           379.798518
 MD| Energy drift per atom [K]           0.138202490796E+02   0.000000000000E+00
 MD| Potential energy [hartree]         -0.105996235656E+04  -0.105996235656E+04
 MD| Total kinetic energy [hartree]      0.218500929384E+03   0.218500929384E+03
 MD| QM kinetic energy [hartree]         0.121347259534E+00   0.121347259534E+00
 MD| Total temperature [K]                       273.925013           273.925013
 MD| QM temperature [K]                          375.670472           375.670472
 MD| ***************************************************************************

  Translating the system in order to center the QM fragment in the QM box.

 Number of electrons:                                                        180
 Number of occupied orbitals:                                                 90
 Number of molecular orbitals:                                                90

 Number of orbital functions:                                               1067
 Number of independent orbital functions:                                   1067

 Extrapolation method: ASPC


 SCF WAVEFUNCTION OPTIMIZATION

  ----------------------------------- OT ---------------------------------------
  Minimizer      : DIIS                : direct inversion
                                         in the iterative subspace
                                         using   7 DIIS vectors
                                         safer DIIS on
  Preconditioner : FULL_ALL            : diagonalization, state selective
  Precond_solver : DEFAULT
  stepsize       :    0.15000000                  energy_gap     :    0.08000000
  eps_taylor     :   0.10000E-15                  max_taylor     :             4
  ----------------------------------- OT ---------------------------------------

  Step     Update method      Time    Convergence         Total energy    Change
  ------------------------------------------------------------------------------
  Decoupling Energy:                                               0.0370781898
  Recoupling Energy:                                              -0.0063743357
     1 OT DIIS     0.15E+00   17.0     0.00029255      -255.3622522466 -2.55E+02
  Decoupling Energy:                                               0.0370714481
  Recoupling Energy:                                              -0.0063742686
     2 OT DIIS     0.15E+00    8.2     0.00012379      -255.3630880187 -8.36E-04
  Decoupling Energy:                                               0.0370747212
  Recoupling Energy:                                              -0.0063743003
     3 OT DIIS     0.15E+00    8.2     0.00005679      -255.3632553411 -1.67E-04
  Decoupling Energy:                                               0.0370720786
  Recoupling Energy:                                              -0.0063742776
     4 OT DIIS     0.15E+00    8.2     0.00001757      -255.3632741321 -1.88E-05
  Decoupling Energy:                                               0.0370725496
  Recoupling Energy:                                              -0.0063742816
     5 OT DIIS     0.15E+00    8.2     0.00000682      -255.3632756590 -1.53E-06
  Decoupling Energy:                                               0.0370729666
  Recoupling Energy:                                              -0.0063742867
     6 OT DIIS     0.15E+00    8.2     0.00000313      -255.3632759167 -2.58E-07
  Decoupling Energy:                                               0.0370729514
  Recoupling Energy:                                              -0.0063742866
     7 OT DIIS     0.15E+00    8.2     0.00000105      -255.3632759777 -6.10E-08
  Decoupling Energy:                                               0.0370730093
  Recoupling Energy:                                              -0.0063742873
     8 OT DIIS     0.15E+00    8.2     0.00000048      -255.3632759879 -1.02E-08

  *** SCF run converged in     8 steps ***


  Electronic density on regular grids:       -180.0000000000       -0.0000000000
  Core density on regular grids:              180.9999999999       -0.0000000001
  Total charge density on r-space grids:        0.9999999998
  Total charge density g-space grids:           0.9999999998

  Overlap energy of the core charge distribution:               0.00005088941341
  Self energy of the core charge distribution:               -615.71576003586028
  Core Hamiltonian energy:                                    191.44418689498551
  Hartree energy:                                             247.94136678724476
  Exchange-correlation energy:                                -61.47332499901203
  Hartree-Fock Exchange energy:                               -18.13880668935320
  QM/MM Electrostatic energy:                                   0.57901116472482

  Total energy:                                              -255.36327598785707

  outer SCF iter =    1 RMS gradient =   0.48E-06 energy =       -255.3632759879
  outer SCF loop converged in   1 iterations or    8 steps

  Decoupling Energy:                                               0.0370730260
  Recoupling Energy:                                              -0.0063742875

 ENERGY| Total FORCE_EVAL ( QMMM ) energy [a.u.]:          -1061.235329343095827

 MD| ***************************************************************************
 MD| Step number                                                               2
 MD| Time [fs]                                                          2.000000
 MD| Conserved quantity [hartree]                            -0.842817774778E+03
 MD| ---------------------------------------------------------------------------
 MD|                                          Instantaneous             Averages
 MD| CPU time per MD step [s]                    168.792553           274.295535
 MD| Energy drift per atom [K]           0.112696741995E+02   0.563483709977E+01
 MD| Potential energy [hartree]         -0.106123532934E+04  -0.106059884295E+04
 MD| Total kinetic energy [hartree]      0.218417554565E+03   0.218459241975E+03
 MD| QM kinetic energy [hartree]         0.111578042815E+00   0.116462651175E+00
 MD| Total temperature [K]                       273.820490           273.872751
 MD| QM temperature [K]                          345.426639           360.548556
 MD| ***************************************************************************

  Translating the system in order to center the QM fragment in the QM box.

 Number of electrons:                                                        180
 Number of occupied orbitals:                                                 90
 Number of molecular orbitals:                                                90

 Number of orbital functions:                                               1067
 Number of independent orbital functions:                                   1067

 Extrapolation method: ASPC


 SCF WAVEFUNCTION OPTIMIZATION

  ----------------------------------- OT ---------------------------------------
  Minimizer      : DIIS                : direct inversion
                                         in the iterative subspace
                                         using   7 DIIS vectors
                                         safer DIIS on
  Preconditioner : FULL_ALL            : diagonalization, state selective
  Precond_solver : DEFAULT
  stepsize       :    0.15000000                  energy_gap     :    0.08000000
  eps_taylor     :   0.10000E-15                  max_taylor     :             4
  ----------------------------------- OT ---------------------------------------

  Step     Update method      Time    Convergence         Total energy    Change
  ------------------------------------------------------------------------------
  Decoupling Energy:                                               0.0371231477
  Recoupling Energy:                                              -0.0063748340
     1 OT DIIS     0.15E+00   17.0     0.00057316      -254.8840254315 -2.55E+02
  Decoupling Energy:                                               0.0371264100
  Recoupling Energy:                                              -0.0063748791
     2 OT DIIS     0.15E+00    8.7     0.00022568      -254.8871518001 -3.13E-03
  Decoupling Energy:                                               0.0371270592
  Recoupling Energy:                                              -0.0063748843
     3 OT DIIS     0.15E+00    8.7     0.00008229      -254.8877072659 -5.55E-04
  Decoupling Energy:                                               0.0371223463
  Recoupling Energy:                                              -0.0063748375
     4 OT DIIS     0.15E+00    8.7     0.00002759      -254.8877574823 -5.02E-05
  Decoupling Energy:                                               0.0371233147
  Recoupling Energy:                                              -0.0063748478
     5 OT DIIS     0.15E+00    8.7     0.00001042      -254.8877612933 -3.81E-06
  Decoupling Energy:                                               0.0371231675
  Recoupling Energy:                                              -0.0063748451
     6 OT DIIS     0.15E+00    8.7     0.00000442      -254.8877618820 -5.89E-07
  Decoupling Energy:                                               0.0371230852
  Recoupling Energy:                                              -0.0063748446
     7 OT DIIS     0.15E+00    8.7     0.00000136      -254.8877619732 -9.12E-08
  Decoupling Energy:                                               0.0371230878
  Recoupling Energy:                                              -0.0063748447
     8 OT DIIS     0.15E+00    8.7     0.00000059      -254.8877619841 -1.09E-08

  *** SCF run converged in     8 steps ***


  Electronic density on regular grids:       -180.0000000003       -0.0000000003
  Core density on regular grids:              180.9999999999       -0.0000000001
  Total charge density on r-space grids:        0.9999999996
  Total charge density g-space grids:           0.9999999996

  Overlap energy of the core charge distribution:               0.00005124521912
  Self energy of the core charge distribution:               -615.71576003586028
  Core Hamiltonian energy:                                    191.49126269036827
  Hartree energy:                                             247.90727798351995
  Exchange-correlation energy:                                -61.48094764049522
  Hartree-Fock Exchange energy:                               -18.14140213471700
  QM/MM Electrostatic energy:                                   1.05175590788830

  Total energy:                                              -254.88776198407689

  outer SCF iter =    1 RMS gradient =   0.59E-06 energy =       -254.8877619841
  outer SCF loop converged in   1 iterations or    8 steps

  Decoupling Energy:                                               0.0371230877
  Recoupling Energy:                                              -0.0063748447

 ENERGY| Total FORCE_EVAL ( QMMM ) energy [a.u.]:          -1082.045340310603024

 MD| ***************************************************************************
 MD| Step number                                                               3
 MD| Time [fs]                                                          3.000000
 MD| Conserved quantity [hartree]                            -0.846392350400E+03
 MD| ---------------------------------------------------------------------------
 MD|                                          Instantaneous             Averages
 MD| CPU time per MD step [s]                    175.848057           241.479709
 MD| Energy drift per atom [K]           0.454778167453E+01   0.527248529136E+01
 MD| Potential energy [hartree]         -0.108204534031E+04  -0.106774767541E+04
 MD| Total kinetic energy [hartree]      0.235652989910E+03   0.224190491287E+03
 MD| QM kinetic energy [hartree]         0.117355710678E+00   0.116760337676E+00
 MD| Total temperature [K]                       295.427797           281.057767
 MD| QM temperature [K]                          363.313316           361.470142
 MD| ***************************************************************************

  Translating the system in order to center the QM fragment in the QM box.

 Number of electrons:                                                        180
 Number of occupied orbitals:                                                 90
 Number of molecular orbitals:                                                90

 Number of orbital functions:                                               1067
 Number of independent orbital functions:                                   1067

 Extrapolation method: ASPC


 SCF WAVEFUNCTION OPTIMIZATION

  ----------------------------------- OT ---------------------------------------
  Minimizer      : DIIS                : direct inversion
                                         in the iterative subspace
                                         using   7 DIIS vectors
                                         safer DIIS on
  Preconditioner : FULL_ALL            : diagonalization, state selective
  Precond_solver : DEFAULT
  stepsize       :    0.15000000                  energy_gap     :    0.08000000
  eps_taylor     :   0.10000E-15                  max_taylor     :             4
  ----------------------------------- OT ---------------------------------------

  Step     Update method      Time    Convergence         Total energy    Change
  ------------------------------------------------------------------------------
  Decoupling Energy:                                               0.0371654793
  Recoupling Energy:                                              -0.0063753284
     1 OT DIIS     0.15E+00   16.9     0.00026651      -254.3373028690 -2.54E+02
  Decoupling Energy:                                               0.0371742335
  Recoupling Energy:                                              -0.0063754097
     2 OT DIIS     0.15E+00    8.3     0.00010689      -254.3379927463 -6.90E-04
  Decoupling Energy:                                               0.0371691910
  Recoupling Energy:                                              -0.0063753576
     3 OT DIIS     0.15E+00    8.3     0.00004011      -254.3381207223 -1.28E-04
  Decoupling Energy:                                               0.0371714360
  Recoupling Energy:                                              -0.0063753809
     4 OT DIIS     0.15E+00    8.3     0.00001259      -254.3381306665 -9.94E-06
  Decoupling Energy:                                               0.0371702651
  Recoupling Energy:                                              -0.0063753694
     5 OT DIIS     0.15E+00    8.3     0.00000531      -254.3381315020 -8.35E-07
  Decoupling Energy:                                               0.0371705251
  Recoupling Energy:                                              -0.0063753714
     6 OT DIIS     0.15E+00    8.3     0.00000187      -254.3381316369 -1.35E-07
  Decoupling Energy:                                               0.0371705363
  Recoupling Energy:                                              -0.0063753717
     7 OT DIIS     0.15E+00    8.3     0.00000064      -254.3381316552 -1.83E-08

  *** SCF run converged in     7 steps ***


  Electronic density on regular grids:       -179.9999999999        0.0000000001
  Core density on regular grids:              180.9999999999       -0.0000000001
  Total charge density on r-space grids:        1.0000000000
  Total charge density g-space grids:           1.0000000000

  Overlap energy of the core charge distribution:               0.00002358491187
  Self energy of the core charge distribution:               -615.71576003586028
  Core Hamiltonian energy:                                    191.34735119137841
  Hartree energy:                                             247.97607796701047
  Exchange-correlation energy:                                -61.44937442814535
  Hartree-Fock Exchange energy:                               -18.13042054144929
  QM/MM Electrostatic energy:                                   1.63397060691703

  Total energy:                                              -254.33813165523716

  outer SCF iter =    1 RMS gradient =   0.64E-06 energy =       -254.3381316552
  outer SCF loop converged in   1 iterations or    7 steps

  Decoupling Energy:                                               0.0371704681
  Recoupling Energy:                                              -0.0063753710

 ENERGY| Total FORCE_EVAL ( QMMM ) energy [a.u.]:          -1079.714053202550758

 MD| ***************************************************************************
 MD| Step number                                                               4
 MD| Time [fs]                                                          4.000000
 MD| Conserved quantity [hartree]                            -0.842113597364E+03
 MD| ---------------------------------------------------------------------------
 MD|                                          Instantaneous             Averages
 MD| CPU time per MD step [s]                    161.441526           221.470163
 MD| Energy drift per atom [K]           0.125938607321E+02   0.710282915155E+01
 MD| Potential energy [hartree]         -0.107971405320E+04  -0.107073926985E+04
 MD| Total kinetic energy [hartree]      0.237600455839E+03   0.227542982425E+03
 MD| QM kinetic energy [hartree]         0.148327750463E+00   0.124652190873E+00
 MD| Total temperature [K]                       297.869250           285.260638
 MD| QM temperature [K]                          459.197482           385.901977
 MD| ***************************************************************************

  Translating the system in order to center the QM fragment in the QM box.

 Number of electrons:                                                        180
 Number of occupied orbitals:                                                 90
 Number of molecular orbitals:                                                90

 Number of orbital functions:                                               1067
 Number of independent orbital functions:                                   1067

 Extrapolation method: ASPC


 SCF WAVEFUNCTION OPTIMIZATION

  ----------------------------------- OT ---------------------------------------
  Minimizer      : DIIS                : direct inversion
                                         in the iterative subspace
                                         using   7 DIIS vectors
                                         safer DIIS on
  Preconditioner : FULL_ALL            : diagonalization, state selective
  Precond_solver : DEFAULT
  stepsize       :    0.15000000                  energy_gap     :    0.08000000
  eps_taylor     :   0.10000E-15                  max_taylor     :             4
  ----------------------------------- OT ---------------------------------------

  Step     Update method      Time    Convergence         Total energy    Change
  ------------------------------------------------------------------------------
  Decoupling Energy:                                               0.0372102312
  Recoupling Energy:                                              -0.0063758452
     1 OT DIIS     0.15E+00   17.0     0.00032170      -253.7449296441 -2.54E+02
  Decoupling Energy:                                               0.0372071341
  Recoupling Energy:                                              -0.0063758012
     2 OT DIIS     0.15E+00    8.8     0.00013174      -253.7458491172 -9.19E-04
  Decoupling Energy:                                               0.0372093599
  Recoupling Energy:                                              -0.0063758215
     3 OT DIIS     0.15E+00    8.7     0.00006230      -253.7460081947 -1.59E-04
  Decoupling Energy:                                               0.0372088296
  Recoupling Energy:                                              -0.0063758156
     4 OT DIIS     0.15E+00    8.7     0.00002412      -253.7460393513 -3.12E-05
  Decoupling Energy:                                               0.0372096193
  Recoupling Energy:                                              -0.0063758219
     5 OT DIIS     0.15E+00    8.7     0.00000521      -253.7460418456 -2.49E-06
  Decoupling Energy:                                               0.0372093004
  Recoupling Energy:                                              -0.0063758193
     6 OT DIIS     0.15E+00    8.7     0.00000249      -253.7460419884 -1.43E-07
  Decoupling Energy:                                               0.0372093042
  Recoupling Energy:                                              -0.0063758191
     7 OT DIIS     0.15E+00    8.7     0.00000089      -253.7460420199 -3.15E-08

  *** SCF run converged in     7 steps ***


  Electronic density on regular grids:       -180.0000000000       -0.0000000000
  Core density on regular grids:              180.9999999999       -0.0000000001
  Total charge density on r-space grids:        0.9999999998
  Total charge density g-space grids:           0.9999999998

  Overlap energy of the core charge distribution:               0.00001841805965
  Self energy of the core charge distribution:               -615.71576003586028
  Core Hamiltonian energy:                                    191.22476847113603
  Hartree energy:                                             248.04793257848809
  Exchange-correlation energy:                                -61.41799537608208
  Hartree-Fock Exchange energy:                               -18.11952466029060
  QM/MM Electrostatic energy:                                   2.23451858463293

  Total energy:                                              -253.74604201991627

  outer SCF iter =    1 RMS gradient =   0.89E-06 energy =       -253.7460420199
  outer SCF loop converged in   1 iterations or    7 steps

  Decoupling Energy:                                               0.0372093300
  Recoupling Energy:                                              -0.0063758194

 ENERGY| Total FORCE_EVAL ( QMMM ) energy [a.u.]:          -1094.307011264502762

 MD| ***************************************************************************
 MD| Step number                                                               5
 MD| Time [fs]                                                          5.000000
 MD| Conserved quantity [hartree]                            -0.848389415868E+03
 MD| ---------------------------------------------------------------------------
 MD|                                          Instantaneous             Averages
 MD| CPU time per MD step [s]                    167.603952           210.696921
 MD| Energy drift per atom [K]           0.792354217998E+00   0.584073416484E+01
 MD| Potential energy [hartree]         -0.109430701126E+04  -0.107545281814E+04
 MD| Total kinetic energy [hartree]      0.245917595397E+03   0.231217905019E+03
 MD| QM kinetic energy [hartree]         0.157565230511E+00   0.131234798800E+00
 MD| Total temperature [K]                       308.296082           289.867726
 MD| QM temperature [K]                          487.795149           406.280612
 MD| ***************************************************************************

  Translating the system in order to center the QM fragment in the QM box.

 Number of electrons:                                                        180
 Number of occupied orbitals:                                                 90
 Number of molecular orbitals:                                                90

 Number of orbital functions:                                               1067
 Number of independent orbital functions:                                   1067

 Extrapolation method: ASPC


 SCF WAVEFUNCTION OPTIMIZATION

  ----------------------------------- OT ---------------------------------------
  Minimizer      : DIIS                : direct inversion
                                         in the iterative subspace
                                         using   7 DIIS vectors
                                         safer DIIS on
  Preconditioner : FULL_ALL            : diagonalization, state selective
  Precond_solver : DEFAULT
  stepsize       :    0.15000000                  energy_gap     :    0.08000000
  eps_taylor     :   0.10000E-15                  max_taylor     :             4
  ----------------------------------- OT ---------------------------------------

  Step     Update method      Time    Convergence         Total energy    Change
  ------------------------------------------------------------------------------
  Decoupling Energy:                                               0.0372438950
  Recoupling Energy:                                              -0.0063762155
     1 OT DIIS     0.15E+00   17.0     0.00048957      -253.1925174505 -2.53E+02
  Decoupling Energy:                                               0.0372420581
  Recoupling Energy:                                              -0.0063762278
     2 OT DIIS     0.15E+00    8.4     0.00019214      -253.1946654433 -2.15E-03
  Decoupling Energy:                                               0.0372396358
  Recoupling Energy:                                              -0.0063761945
     3 OT DIIS     0.15E+00    8.4     0.00008081      -253.1950224408 -3.57E-04
  Decoupling Energy:                                               0.0372398298
  Recoupling Energy:                                              -0.0063761984
     4 OT DIIS     0.15E+00    8.4     0.00002261      -253.1950813830 -5.89E-05
  Decoupling Energy:                                               0.0372387916
  Recoupling Energy:                                              -0.0063761870
     5 OT DIIS     0.15E+00    8.4     0.00000838      -253.1950839786 -2.60E-06
  Decoupling Energy:                                               0.0372394659
  Recoupling Energy:                                              -0.0063761927
     6 OT DIIS     0.15E+00    8.4     0.00000286      -253.1950843378 -3.59E-07
  Decoupling Energy:                                               0.0372392155
  Recoupling Energy:                                              -0.0063761903
     7 OT DIIS     0.15E+00    8.4     0.00000086      -253.1950843782 -4.04E-08

  *** SCF run converged in     7 steps ***


  Electronic density on regular grids:       -180.0000000000       -0.0000000000
  Core density on regular grids:              180.9999999999       -0.0000000001
  Total charge density on r-space grids:        0.9999999998
  Total charge density g-space grids:           0.9999999998

  Overlap energy of the core charge distribution:               0.00001843293321
  Self energy of the core charge distribution:               -615.71576003586028
  Core Hamiltonian energy:                                    191.21897617656975
  Hartree energy:                                             248.05851218926301
  Exchange-correlation energy:                                -61.40903171527169
  Hartree-Fock Exchange energy:                               -18.11645465055967
  QM/MM Electrostatic energy:                                   2.76865522470323

  Total energy:                                              -253.19508437822245

  outer SCF iter =    1 RMS gradient =   0.86E-06 energy =       -253.1950843782
  outer SCF loop converged in   1 iterations or    7 steps

  Decoupling Energy:                                               0.0372392105
  Recoupling Energy:                                              -0.0063761902

 ENERGY| Total FORCE_EVAL ( QMMM ) energy [a.u.]:          -1057.339964488698115

 MD| ***************************************************************************
 MD| Step number                                                               6
 MD| Time [fs]                                                          6.000000
 MD| Conserved quantity [hartree]                            -0.842900323030E+03
 MD| ---------------------------------------------------------------------------
 MD|                                          Instantaneous             Averages
 MD| CPU time per MD step [s]                    162.220799           202.617567
 MD| Energy drift per atom [K]           0.111144444513E+02   0.671968587924E+01
 MD| Potential energy [hartree]         -0.105733996449E+04  -0.107243400920E+04
 MD| Total kinetic energy [hartree]      0.214439641459E+03   0.228421527759E+03
 MD| QM kinetic energy [hartree]         0.141133139062E+00   0.132884522177E+00
 MD| Total temperature [K]                       268.833555           286.362031
 MD| QM temperature [K]                          436.924189           411.387875
 MD| ***************************************************************************

 -------------------------------------------------------------------------------
 -                                                                             -
 -                                DBCSR STATISTICS                             -
 -                                                                             -
 -------------------------------------------------------------------------------
 COUNTER                                    TOTAL       BLAS       SMM       ACC
 flops     9 x    26 x    26              2810808     100.0%      0.0%      0.0%
 flops    22 x    26 x    26              7287280     100.0%      0.0%      0.0%
 flops     9 x    32 x    32              8515584     100.0%      0.0%      0.0%
 flops    26 x    26 x    26             13709280     100.0%      0.0%      0.0%
 flops    40 x    26 x    26             15142400     100.0%      0.0%      0.0%
 flops    22 x    32 x    32             22077440     100.0%      0.0%      0.0%
 flops    26 x    32 x    26             33745920     100.0%      0.0%      0.0%
 flops    32 x    26 x    26             33745920     100.0%      0.0%      0.0%
 flops    26 x    26 x    32             33745920     100.0%      0.0%      0.0%
 flops    40 x    32 x    26             37273600     100.0%      0.0%      0.0%
 flops    40 x    26 x    32             37273600     100.0%      0.0%      0.0%
 flops    40 x    26 x   257             67354560     100.0%      0.0%      0.0%
 flops    40 x    26 x   261             68402880     100.0%      0.0%      0.0%
 flops    40 x    26 x   270             70761600     100.0%      0.0%      0.0%
 flops    26 x    26 x   257             80264184     100.0%      0.0%      0.0%
 flops    26 x    26 x   261             81513432     100.0%      0.0%      0.0%
 flops    32 x    32 x    26             83066880     100.0%      0.0%      0.0%
 flops    26 x    32 x    32             83066880     100.0%      0.0%      0.0%
 flops    32 x    26 x    32             83066880     100.0%      0.0%      0.0%
 flops    26 x    26 x   270             84324240     100.0%      0.0%      0.0%
 flops    40 x    32 x    32             91750400     100.0%      0.0%      0.0%
 flops    62 x    26 x    26            117353600     100.0%      0.0%      0.0%
 flops    84 x    26 x    26            127196160     100.0%      0.0%      0.0%
 flops     9 x     9 x    26            165405240     100.0%      0.0%      0.0%
 flops    40 x    32 x   257            165795840     100.0%      0.0%      0.0%
 flops    40 x    32 x   261            168376320     100.0%      0.0%      0.0%
 flops    40 x    32 x   270            174182400     100.0%      0.0%      0.0%
 flops    26 x    32 x   257            197573376     100.0%      0.0%      0.0%
 flops    32 x    26 x   257            197573376     100.0%      0.0%      0.0%
 flops    26 x    32 x   261            200648448     100.0%      0.0%      0.0%
 flops    32 x    26 x   261            200648448     100.0%      0.0%      0.0%
 flops    32 x    32 x    32            204472320     100.0%      0.0%      0.0%
 flops    26 x    32 x   270            207567360     100.0%      0.0%      0.0%
 flops    32 x    26 x   270            207567360     100.0%      0.0%      0.0%
 flops    62 x    32 x    26            288870400     100.0%      0.0%      0.0%
 flops    62 x    26 x    32            288870400     100.0%      0.0%      0.0%
 flops    84 x    32 x    26            313098240     100.0%      0.0%      0.0%
 flops    84 x    26 x    32            313098240     100.0%      0.0%      0.0%
 flops     9 x     9 x    32            407151360     100.0%      0.0%      0.0%
 flops    22 x     9 x    26            415855440     100.0%      0.0%      0.0%
 flops     9 x    22 x    26            416576160     100.0%      0.0%      0.0%
 flops    32 x    32 x   257            486334464     100.0%      0.0%      0.0%
 flops    32 x    32 x   261            493903872     100.0%      0.0%      0.0%
 flops    32 x    32 x   270            510935040     100.0%      0.0%      0.0%
 flops    62 x    26 x   257            521997840     100.0%      0.0%      0.0%
 flops    62 x    26 x   261            530122320     100.0%      0.0%      0.0%
 flops    62 x    26 x   270            548402400     100.0%      0.0%      0.0%
 flops    84 x    26 x   257            565778304     100.0%      0.0%      0.0%
 flops    84 x    26 x   261            574584192     100.0%      0.0%      0.0%
 flops    84 x    26 x   270            594397440     100.0%      0.0%      0.0%
 flops    62 x    32 x    32            711065600     100.0%      0.0%      0.0%
 flops    84 x    32 x    32            770703360     100.0%      0.0%      0.0%
 flops     9 x    26 x     9            802701900     100.0%      0.0%      0.0%
 flops    22 x     9 x    32           1023644160     100.0%      0.0%      0.0%
 flops     9 x    22 x    32           1025418240     100.0%      0.0%      0.0%
 flops    22 x    22 x    26           1109908800     100.0%      0.0%      0.0%
 flops    62 x    32 x   257           1284917760     100.0%      0.0%      0.0%
 flops    62 x    32 x   261           1304916480     100.0%      0.0%      0.0%
 flops    62 x    32 x   270           1349913600     100.0%      0.0%      0.0%
 flops    84 x    32 x   257           1392685056     100.0%      0.0%      0.0%
 flops    84 x    32 x   261           1414361088     100.0%      0.0%      0.0%
 flops    84 x    32 x   270           1463132160     100.0%      0.0%      0.0%
 flops     9 x    32 x     9           1975881600     100.0%      0.0%      0.0%
 flops     9 x    26 x    22           2081079000     100.0%      0.0%      0.0%
 flops    22 x    26 x     9           2081079000     100.0%      0.0%      0.0%
 flops    22 x    22 x    32           2732083200     100.0%      0.0%      0.0%
 flops    22 x    32 x     9           5122656000     100.0%      0.0%      0.0%
 flops     9 x    32 x    22           5122656000     100.0%      0.0%      0.0%
 flops    22 x    26 x    22           5395390000     100.0%      0.0%      0.0%
 flops    22 x    32 x    22          13280960000     100.0%      0.0%      0.0%
 flops inhomo. stacks                 22522736880     100.0%      0.0%      0.0%
 flops total                        84.611126E+09     100.0%      0.0%      0.0%
 flops max/rank                     14.862747E+09     100.0%      0.0%      0.0%
 matmuls inhomo. stacks                     26019     100.0%      0.0%      0.0%
 matmuls total                            3001014     100.0%      0.0%      0.0%
 number of processed stacks                255936     100.0%      0.0%      0.0%
 average stack size                                    11.7       0.0       0.0
 marketing flops                    85.671830E+09
 -------------------------------------------------------------------------------
 # multiplications                           1286
 max memory usage/rank               5.921464E+09
 # max total images/rank                        2
 # max 3D layers                                1
 # MPI messages exchanged                   51440
 MPI messages size (bytes):
  total size                        10.161478E+09
  min size                           0.000000E+00
  max size                           1.196352E+06
  average size                     197.540391E+03
 MPI breakdown and total messages size (bytes):
             size <=      128               11951                        0
       128 < size <=     8192                9561                 70525344
      8192 < size <=    32768                3510                 48859200
     32768 < size <=   131072               14910               1232564256
    131072 < size <=  4194304               11508               8809536120
   4194304 < size <= 16777216                   0                        0
  16777216 < size                               0                        0
 -------------------------------------------------------------------------------

 *** WARNING in dbcsr_mm.F:294 :: Using a non-square number of MPI ranks ***
 *** might lead to poor performance. Used ranks: 8 Suggested: 9 16       ***

 -------------------------------------------------------------------------------
 -                                                                             -
 -                      DBCSR MESSAGE PASSING PERFORMANCE                      -
 -                                                                             -
 -------------------------------------------------------------------------------
 ROUTINE             CALLS      AVE VOLUME [Bytes]
 MP_Bcast               71                     12.
 MP_Allreduce         6890                      8.
 MP_Alltoall          5344                  38949.
 MP_ISend            19180                  81735.
 MP_IRecv            19180                  77019.
 -------------------------------------------------------------------------------

 -------------------------------------------------------------------------------
 -                                                                             -
 -                                GRID STATISTICS                              -
 -                                                                             -
 -------------------------------------------------------------------------------
 LP    KERNEL             BACKEND                              COUNT     PERCENT
 2     collocate ortho    REF                                1126269      19.22%
 2     integrate ortho    REF                                1106014      18.88%
 1     collocate ortho    REF                                 943978      16.11%
 1     integrate ortho    REF                                 870340      14.85%
 3     integrate ortho    REF                                 570062       9.73%
 3     collocate ortho    REF                                 500530       8.54%
 0     collocate ortho    REF                                 281245       4.80%
 0     integrate ortho    REF                                 249988       4.27%
 4     integrate ortho    REF                                 121240       2.07%
 4     collocate ortho    REF                                  73823       1.26%
 5     integrate ortho    REF                                   8201       0.14%
 0     collocate general  REF                                   3808       0.06%
 1     integrate general  REF                                   3808       0.06%
 -------------------------------------------------------------------------------

 MEMORY| Estimated peak process memory [MiB]                                5690

 -------------------------------------------------------------------------------
 -                                                                             -
 -                         MESSAGE PASSING PERFORMANCE                         -
 -                                                                             -
 -------------------------------------------------------------------------------

 ROUTINE             CALLS      AVE VOLUME [Bytes]
 MP_Group                8
 MP_Bcast             6928               10586816.
 MP_Allreduce         2439                1685116.
 MP_Sync               430
 MP_Alltoall          1330              143193057.
 MP_ISendRecv         3773                1247896.
 MP_Wait              6300
 MP_comm_split          14
 MP_ISend             2023                5093744.
 MP_IRecv             2016                5108587.
 MP_Recv                21                 196328.
 -------------------------------------------------------------------------------


 -------------------------------------------------------------------------------
 -                                                                             -
 -                           R E F E R E N C E S                               -
 -                                                                             -
 -------------------------------------------------------------------------------
 
 CP2K version 8.2, the CP2K developers group (2021).
 CP2K is freely available from https://www.cp2k.org/ .

 Kuehne,Thomas D.; Iannuzzi,Marcella; Del Ben,Mauro;
 Rybkin,Vladimir V.; Seewald,Patrick; Stein,Frederick; Laino,Teodoro;
 Khaliullin,Rustam Z.; Schuett,Ole; Schiffmann,Florian; Golze,Dorothea;
 Wilhelm,Jan; Chulkov,Sergey; Bani-Hashemian,Mohammad Hossein;
 Weber,Valery; Borstnik,Urban; Taillefumier,Mathieu;
 Jakobovits,Alice Shoshana; Lazzaro,Alfio; Pabst,Hans; Mueller,Tiziano;
 Schade,Robert; Guidon,Manuel; Andermatt,Samuel; Holmberg,Nico;
 Schenter,Gregory K.; Hehn,Anna; Bussy,Augustin; Belleflamme,Fabian;
 Tabacchi,Gloria; Gloess,Andreas; Lass,Michael; Bethune,Iain;
 Mundy,Christopher J.; Plessl,Christian; Watkins,Matt;
 VandeVondele,Joost; Krack,Matthias; Hutter,Juerg. 
 The Journal of Chemical Physics, 152 (19), (2020). 
 CP2K: An electronic structure and molecular dynamics software package -
 Quickstep: Efficient and accurate electronic structure calculations.
 https://doi.org/10.1063/5.0007045

 Schuett, Ole; Messmer, Peter; Hutter, Juerg; VandeVondele, Joost. 
 Electronic Structure Calculations on Graphics Processing Units, John
 Wiley & Sons, Ltd, 173-190 (2016). 
 GPU-Accelerated Sparse Matrix-Matrix Multiplication for
 Linear Scaling Density Functional Theory.
 https://doi.org/10.1002/9781118670712.ch8

 Borstnik, U; VandeVondele, J; Weber, V; Hutter, J. 
 PARALLEL COMPUTING, 40 (5-6), 47-58 (2014). 
 Sparse matrix multiplication: The distributed block-compressed sparse
 row library.
 https://doi.org/10.1016/j.parco.2014.03.012

 Hutter, J; Iannuzzi, M; Schiffmann, F; VandeVondele, J. 
 WIREs Comput Mol Sci., 4 (1), 15-25 (2014). 
 CP2K: atomistic simulations of condensed matter systems.
 https://doi.org/10.1002/wcms.1159

 Marek, A; Blum, V; Johanni, R; Havu, V; Lang, B; Auckenthaler, T;
 Heinecke, A; Bungartz, H; Lederer, H. 
 Journal of Physics: Condensed Matter, 26 (21), (2014). 
 The ELPA library: scalable parallel eigenvalue solutions for
 electronic structure
 theory and computational science.
 https://doi.org/10.1088/0953-8984/26/21/213201

 Guidon, M; Hutter, J; VandeVondele, J. 
 JOURNAL OF CHEMICAL THEORY AND COMPUTATION, 5 (11), 3010-3021 (2009). 
 Robust Periodic Hartree-Fock Exchange for Large-Scale Simulations Using
 Gaussian Basis Sets.
 https://doi.org/10.1021/ct900494g

 Guidon, M; Schiffmann, F; Hutter, J; VandeVondele, J. 
 JOURNAL OF CHEMICAL PHYSICS, 128 (21), 214104 (2008). 
 Ab initio molecular dynamics using hybrid density functionals.
 https://doi.org/10.1063/1.2931945

 Kuhne, TD; Krack, M; Mohamed, FR; Parrinello, M. 
 PHYSICAL REVIEW LETTERS, 98 (6), 066401 (2007). 
 Efficient and accurate Car-Parrinello-like approach to
 Born-Oppenheimer molecular dynamics.
 https://doi.org/10.1103/PhysRevLett.98.066401

 Laino, T; Mohamed, F; Laio, A; Parrinello, M. 
 JOURNAL OF CHEMICAL THEORY AND COMPUTATION, 2 (5), 1370-1378 (2006). 
 An efficient linear-scaling electrostatic coupling for treating
 periodic boundary conditions in QM/MM simulations.
 https://doi.org/10.1021/ct6001169

 Laino, T; Mohamed, F; Laio, A; Parrinello, M. 
 JOURNAL OF CHEMICAL THEORY AND COMPUTATION, 1 (6), 1176-1184 (2005). 
 An efficient real space multigrid QM/MM electrostatic coupling.
 https://doi.org/10.1021/ct050123f

 Krack, M. 
 THEORETICAL CHEMISTRY ACCOUNTS, 114 (1-3), 145-152 (2005). 
 Pseudopotentials for H to Kr optimized for gradient-corrected
 exchange-correlation functionals.
 https://doi.org/10.1007/s00214-005-0655-y

 VandeVondele, J; Krack, M; Mohamed, F; Parrinello, M; Chassaing, T;
 Hutter, J. COMPUTER PHYSICS COMMUNICATIONS, 167 (2), 103-128 (2005). 
 QUICKSTEP: Fast and accurate density functional calculations using a
 mixed Gaussian and plane waves approach.
 https://doi.org/10.1016/j.cpc.2004.12.014

 Frigo, M; Johnson, SG. 
 PROCEEDINGS OF THE IEEE, 93 (2), 216-231 (2005). 
 The design and implementation of FFTW3.
 https://doi.org/10.1109/JPROC.2004.840301

 Kolafa, J. 
 JOURNAL OF COMPUTATIONAL CHEMISTRY, 25 (3), 335-342 (2004). 
 Time-reversible always stable predictor-corrector method for molecular dynamics of polarizable molecules.
 https://doi.org/10.1002/jcc.10385

 VandeVondele, J; Hutter, J. 
 JOURNAL OF CHEMICAL PHYSICS, 118 (10), 4365-4369 (2003). 
 An efficient orbital transformation method for electronic structure
 calculations.
 https://doi.org/10.1063/1.1543154

 Hartwigsen, C; Goedecker, S; Hutter, J. 
 PHYSICAL REVIEW B, 58 (7), 3641-3662 (1998). 
 Relativistic separable dual-space Gaussian pseudopotentials from H to Rn.
 https://doi.org/10.1103/PhysRevB.58.3641

 Lippert, G; Hutter, J; Parrinello, M. 
 MOLECULAR PHYSICS, 92 (3), 477-487 (1997). 
 A hybrid Gaussian and plane wave density functional scheme.
 https://doi.org/10.1080/002689797170220

 Perdew, JP; Burke, K; Ernzerhof, M. 
 PHYSICAL REVIEW LETTERS, 77 (18), 3865-3868 (1996). 
 Generalized gradient approximation made simple.
 https://doi.org/10.1103/PhysRevLett.77.3865

 Goedecker, S; Teter, M; Hutter, J. 
 PHYSICAL REVIEW B, 54 (3), 1703-1710 (1996). 
 Separable dual-space Gaussian pseudopotentials.
 https://doi.org/10.1103/PhysRevB.54.1703

 ESSMANN, U; PERERA, L; BERKOWITZ, ML; DARDEN, T; LEE, H; PEDERSEN, LG. 
 JOURNAL OF CHEMICAL PHYSICS, 103 (19), 8577-8593 (1995). 
 A SMOOTH PARTICLE MESH EWALD METHOD.
 https://doi.org/10.1063/1.470117

 BLOCHL, PE. 
 JOURNAL OF CHEMICAL PHYSICS, 103 (17), 7422-7428 (1995). 
 ELECTROSTATIC DECOUPLING OF PERIODIC IMAGES OF PLANE-WAVE-EXPANDED
 DENSITIES AND DERIVED ATOMIC POINT CHARGES.
 https://doi.org/10.1063/1.470314


 -------------------------------------------------------------------------------
 -                                                                             -
 -                                T I M I N G                                  -
 -                                                                             -
 -------------------------------------------------------------------------------
 SUBROUTINE                       CALLS  ASD         SELF TIME        TOTAL TIME
                                MAXIMUM       AVERAGE  MAXIMUM  AVERAGE  MAXIMUM
 CP2K                                 1  1.0    0.263    0.271 1259.892 1259.893
 qs_mol_dyn_low                       1  2.0    0.072    0.073 1216.797 1218.217
 velocity_verlet                      6  3.0    0.038    0.038 1017.993 1018.312
 qs_forces                            7  3.9    0.007    0.008  883.809  883.810
 rebuild_ks_matrix                   63  8.5    0.001    0.001  834.116  834.125
 qs_ks_build_kohn_sham_matrix        63  9.5    0.034    0.035  834.115  834.124
 hfx_ks_matrix                       63 10.5    0.004    0.004  702.145  702.162
 qs_energies                          7  4.9    0.016    0.016  553.639  553.831
 scf_env_do_scf                       7  5.9    0.000    0.001  545.378  545.378
 qs_ks_update_qs_env                 63  7.8    0.001    0.001  504.326  504.333
 integrate_four_center               63 11.5    3.492    4.058  428.116  428.132
 scf_env_do_scf_inner_loop           56  6.8    0.003    0.005  422.619  422.629
 integrate_four_center_main          63 12.5    2.288    3.197  410.789  413.230
 integrate_four_center_bin         4052 13.5  408.501  411.474  408.501  411.474
 qs_ks_update_qs_env_forces           7  4.9    0.000    0.000  329.805  329.806
 derivatives_four_center              7  8.9    0.040    0.272  274.011  274.012
 derivatives_four_center_main         7  9.9    0.955    1.237  273.424  273.425
 derivatives_four_center_bin        448 10.9  271.716  272.580  271.716  272.580
 qmmm_el_coupling                     7  3.9    0.000    0.001  164.269  164.316
 qmmm_elec_with_gaussian              7  4.9    0.761    0.767  164.249  164.296
 qmmm_forces                          7  3.9    0.020    0.021  150.872  150.873
 qmmm_forces_with_gaussian            7  4.9    0.807    0.817  149.039  149.351
 qmmm_elec_with_gaussian_low          7  5.9    0.000    0.000  143.584  144.822
 qmmm_force_with_gaussian_low         7  5.9    0.000    0.000  126.683  126.899
 init_scf_loop                        7  6.9    0.001    0.002  122.745  122.745
 pw_transfer                       1337 12.0    0.109    0.117  114.918  119.035
 fft_wrap_pw1pw2                   1113 13.1    0.015    0.015  112.931  117.057
 fft_wrap_pw1pw2_200                707 14.4   10.578   10.929  111.324  115.450
 qmmm_forces_gaussian_low_R           7  6.9    0.000    0.000  104.872  105.103
 qmmm_forces_with_gaussian_LG         7  7.9  104.872  105.103  104.872  105.103
 qmmm_elec_gaussian_low_R             7  6.9    0.000    0.001   92.742   93.754
 qmmm_elec_with_gaussian_LG           7  7.9   92.742   93.754   92.742   93.754
 qs_vxc_create                       63 10.5    0.004    0.004   91.199   91.203
 xc_vxc_pw_create                    63 11.5    1.972    2.245   91.195   91.198
 fft3d_ps                          1113 15.1   62.740   63.599   86.920   91.160
 qmmm_elec_gaussian_low_G             7  6.9   50.842   51.662   50.842   51.662
 xc_rho_set_and_dset_create          63 12.5    0.553    0.568   47.842   49.862
 qs_rho_update_rho                   63  7.9    0.002    0.002   42.163   42.168
 calculate_rho_elec                  63  8.9    0.918    0.923   42.161   42.166
 qmmm_env_create                      1  2.0    7.464    7.469   41.361   41.361
 fist_init                            1  3.0    0.006    0.009   30.489   30.489
 pw_integral_ab                    2967  7.5   25.464   25.965   25.681   26.198
 density_rs2pw                       63  9.9    0.003    0.003   25.713   26.123
 -------------------------------------------------------------------------------

 The number of warnings for this run is : 1
 
 -------------------------------------------------------------------------------
  **** **** ******  **  PROGRAM ENDED AT                 2021-08-31 17:38:42.621
 ***** ** ***  *** **   PROGRAM RAN ON                                 nid002001
 **    ****   ******    PROGRAM RAN BY                                     hjbio
 ***** **    ** ** **   PROGRAM PROCESS ID                                185786
  **** **  *******  **  PROGRAM STOPPED IN /lus/cls01095/work/d118/d118/hjbio/qm
                                           mm-benchmarking/archer2/CPU/cp2kMD/CB
                                           D_PHY-PBE0/6STEPS/1NODES/64CPN/8THREA
                                           DS
