 DBCSR| CPU Multiplication driver                                           BLAS
 DBCSR| Multrec recursion limit                                              512
 DBCSR| Multiplication stack size                                           1000
 DBCSR| Maximum elements for images                                    UNLIMITED
 DBCSR| Multiplicative factor virtual images                                   1
 DBCSR| Use multiplication densification                                       T
 DBCSR| Multiplication size stacks                                             3
 DBCSR| Use memory pool for CPU allocation                                     F
 DBCSR| Number of 3D layers                                               SINGLE
 DBCSR| Use MPI memory allocation                                              F
 DBCSR| Use RMA algorithm                                                      F
 DBCSR| Use Communication thread                                               T
 DBCSR| Communication thread load                                             75
 DBCSR| MPI: My node id                                                        0
 DBCSR| MPI: Number of nodes                                                  16
 DBCSR| OMP: Current number of threads                                         4
 DBCSR| OMP: Max number of threads                                             4
 DBCSR| Split modifier for TAS multiplication algorithm                  1.0E+00


  **** **** ******  **  PROGRAM STARTED AT               2021-08-31 17:17:39.939
 ***** ** ***  *** **   PROGRAM STARTED ON                             nid001969
 **    ****   ******    PROGRAM STARTED BY                                 hjbio
 ***** **    ** ** **   PROGRAM PROCESS ID                                195601
  **** **  *******  **  PROGRAM STARTED IN /lus/cls01095/work/d118/d118/hjbio/qm
                                           mm-benchmarking/archer2/CPU/cp2kMD/CB
                                           D_PHY-PBE0/6STEPS/1NODES/64CPN/4THREA
                                           DS

 CP2K| version string:                                          CP2K version 8.2
 CP2K| source code revision number:                                  git:310b7ab
 CP2K| cp2kflags: omp libint fftw3 libxc elpa parallel mpi3 scalapack plumed2   
 CP2K| is freely available from                            https://www.cp2k.org/
 CP2K| Program compiled at                          Thu 10 Jun 17:43:51 BST 2021
 CP2K| Program compiled on                                                 uan01
 CP2K| Program compiled for                                              ARCHER2
 CP2K| Data directory path              /work/d118/d118/hjbio/CP2K/cp2k-8.2/data
 CP2K| Input file name                                          CBD_PHY-cp2k.inp

 GLOBAL| Force Environment number                                              1
 GLOBAL| Basis set file name                                           HFX_BASIS
 GLOBAL| Potential file name                                           POTENTIAL
 GLOBAL| MM Potential file name                                     MM_POTENTIAL
 GLOBAL| Coordinate file name                                        CBD_PHY.pdb
 GLOBAL| Method name                                                        CP2K
 GLOBAL| Project name                                               CBD_PHY-PBE0
 GLOBAL| Run type                                                             MD
 GLOBAL| FFT library                                                       FFTW3
 GLOBAL| Diagonalization library                                            ELPA
 GLOBAL| Minimum number of eigenvectors for ELPA usage                        16
 GLOBAL| Orthonormality check for eigenvectors                          DISABLED
 GLOBAL| Matrix multiplication library                                    SCALAP
 GLOBAL| All-to-all communication in single precision                          F
 GLOBAL| FFTs using library dependent lengths                                  F
 GLOBAL| Grid backend                                                       AUTO
 GLOBAL| Global print level                                                  LOW
 GLOBAL| MPI I/O enabled                                                       T
 GLOBAL| Total number of message passing processes                            16
 GLOBAL| Number of threads for this process                                    4
 GLOBAL| This output is from process                                           0
 GLOBAL| CPU model name                          AMD EPYC 7742 64-Core Processor
 GLOBAL| CPUID                                                              1002

 MEMORY| system memory details [Kb]
 MEMORY|                        rank 0           min           max       average
 MEMORY| MemTotal            263568576     263568576     263568576     263568576
 MEMORY| MemFree             209668100     209668100     209668100     209668100
 MEMORY| Buffers                149800        149800        149800        149800
 MEMORY| Cached               39228848      39228848      39228848      39228848
 MEMORY| Slab                  6481716       6481716       6481716       6481716
 MEMORY| SReclaimable           346880        346880        346880        346880
 MEMORY| MemLikelyFree       249393628     249393628     249393628     249393628



                      ************* ******** ***********   
                     ************* **********************  
                     ****     **** ****      ***********   
                     ******** ****  *******     ****       
                     *******  ****   *******   ****        
                     ****     ****       ****  ****        
                     ****     **** **********  ****        
                      ****     **** ********    ****       
                     FRONTIERS IN SIMULATION TECHNOLOGY    
                                                           
                        C.J. Mundy, S. Balasubramanian,    
                     Ken Bagchi, J. Hutter, Ari Seitsonen  
                      IFW Kuo, T. Laino, J. VandeVondele   
                                 Version 1.0               

                                                           


 EWALD| Summation is done by:                                               SPME
 EWALD| Alpha parameter [       ANGSTROM^-1]                              0.4000
 EWALD| Real Space Cutoff [          ANGSTROM]                            8.4348
 EWALD| G-space max. Miller index                         80        80        80
 EWALD| Spline interpolation order                                             6

 FORCEFIELD| WARNING: A non Critical ForceField parameter is missing! CP2K GOES!
 FORCEFIELD| Non critical parameters are:Urey-Bradley,Torsions,Impropers, Opbends and 1-4
 FORCEFIELD| All missing parameters will not contribute to the potential energy!
 FORCEFIELD| Activate the print key FF_INFO to have a list of missing parameters

 CHARGE_INFO| Total Charge of the Classical System:                    -0.825808

 SPLINE_INFO| Generating 101926 splines for NONBONDED14 interactions 
              Due to 451 different atomic kinds
  ...10192  ...20384  ...30576  ...40768  ...50960  ...61152  ...71344  ...81536  ...91728  ...101920
 SPLINE_INFO| Number of unique splines computed:            301
 SPLINE_INFO| Done

 SPLINE_INFO| Generating 101926 splines for NONBONDED interactions 
              Due to 451 different atomic kinds
  ...10192  ...20384  ...30576  ...40768  ...50960  ...61152  ...71344  ...81536  ...91728  ...101920
 SPLINE_INFO| Number of unique splines computed:            301
 SPLINE_INFO| Done

 *******************************************************************************
 *******************************************************************************
 **                                                                           **
 **     #####                         ##              ##                      **
 **    ##   ##            ##          ##              ##                      **
 **   ##     ##                       ##            ######                    **
 **   ##     ##  ##   ##  ##   #####  ##  ##   ####   ##    #####    #####    **
 **   ##     ##  ##   ##  ##  ##      ## ##   ##      ##   ##   ##  ##   ##   **
 **   ##  ## ##  ##   ##  ##  ##      ####     ###    ##   ######   ######    **
 **    ##  ###   ##   ##  ##  ##      ## ##      ##   ##   ##       ##        **
 **     #######   #####   ##   #####  ##  ##  ####    ##    #####   ##        **
 **           ##                                                    ##        **
 **                                                                           **
 **                                                ... make the atoms dance   **
 **                                                                           **
 **            Copyright (C) by CP2K developers group (2000-2021)             **
 **                      J. Chem. Phys. 152, 194103 (2020)                    **
 **                                                                           **
 *******************************************************************************


 TOTAL NUMBERS AND MAXIMUM NUMBERS

  Total number of            - Atomic kinds:                                   5
                             - Atoms:                                         68
                             - Shell sets:                                   340
                             - Shells:                                       445
                             - Primitive Cartesian functions:                476
                             - Cartesian basis functions:                   1137
                             - Spherical basis functions:                   1067

  Maximum angular momentum of- Orbital basis functions:                        2
                             - Local part of the GTH pseudopotential:          2
                             - Non-local part of the GTH pseudopotential:      0


 SCF PARAMETERS         Density guess:                                   RESTART
                        --------------------------------------------------------
                        max_scf:                                              30
                        max_scf_history:                                       0
                        max_diis:                                              4
                        --------------------------------------------------------
                        eps_scf:                                        1.00E-06
                        eps_scf_history:                                0.00E+00
                        eps_diis:                                       1.00E-01
                        eps_eigval:                                     1.00E-05
                        --------------------------------------------------------
                        level_shift [a.u.]:                                 0.00
                        --------------------------------------------------------
                        Outer loop SCF in use 
                        No variables optimised in outer loop
                        eps_scf                                         1.00E-06
                        max_scf                                               20
                        No outer loop optimization
                        step_size                                       5.00E-01

 *******************************************************************************
 *******************************************************************************
 **                                                                           **
 **             #######  ##     ## ##     ## ##     ##                        **
 **            ##     ## ###   ### ###   ### ###   ###                        **
 **            ##     ## #### #### #### #### #### ####                        **
 **            ##     ## ## ### ## ## ### ## ## ### ##                        **
 **            ##  ## ## ##     ## ##     ## ##     ##                        **
 **            ##    ##  ##     ## ##     ## ##     ##  T.Laino and F.Mohamed **
 **             ##### ## ##     ## ##     ## ##     ##  2005 - 2015           **
 **                                                                           **
 **                                                     Calculation Started.. **
 *******************************************************************************
 *******************************************************************************

 MD_PAR| Molecular dynamics protocol (MD input parameters)
 MD_PAR| Ensemble type                                                       NVE
 MD_PAR| Number of time steps                                                  6
 MD_PAR| Time step [fs]                                                 1.000000
 MD_PAR| Temperature [K]                                              300.000000
 MD_PAR| Temperature tolerance [K]                                      0.000000
 MD_PAR| Print MD information every                                    1 step(s)
 MD_PAR| File type   Print frequency [steps]                          File names
 MD_PAR| Coordinates          1                           CBD_PHY-PBE0-pos-1.xyz
 MD_PAR| Velocities           1                           CBD_PHY-PBE0-vel-1.xyz
 MD_PAR| Energies             1                              CBD_PHY-PBE0-1.ener
 MD_PAR| Dump                20                           CBD_PHY-PBE0-1.restart

 ROT| Rotational analysis information
 ROT| Principal axes and moments of inertia [a.u.]
 ROT|                           1                   2                   3
 ROT| Eigenvalues      1.56283164001E+13   1.56407408488E+13   1.56663418804E+13
 ROT|      x              0.901637047331     -0.018153263569      0.432112362589
 ROT|      y              0.323714777231      0.690893927917     -0.646431994388
 ROT|      z             -0.286808957117      0.722728191915      0.628812040859
 ROT| Number of rotovibrational vectors                                        6

 DOF| Calculation of degrees of freedom
 DOF| Number of atoms                                                     167923
 DOF| Number of intramolecular constraints                                     0
 DOF| Number of intermolecular constraints                                     0
 DOF| Invariants (translations + rotations)                                    3
 DOF| Degrees of freedom                                                  503766

 DOF| Restraints information
 DOF| Number of intramolecular restraints                                      0
 DOF| Number of intermolecular restraints                                      0

 MD_VEL| Velocities initialization
 MD_VEL| Initial temperature [K]                                      300.000000
 MD_VEL| COM velocity            -0.0000000000     0.0000000000     0.0000000000

  Translating the system in order to center the QM fragment in the QM box.

 Number of electrons:                                                        180
 Number of occupied orbitals:                                                 90
 Number of molecular orbitals:                                                90

 Number of orbital functions:                                               1067
 Number of independent orbital functions:                                   1067

 Extrapolation method: initial_guess


 SCF WAVEFUNCTION OPTIMIZATION

  ----------------------------------- OT ---------------------------------------
  Minimizer      : DIIS                : direct inversion
                                         in the iterative subspace
                                         using   7 DIIS vectors
                                         safer DIIS on
  Preconditioner : FULL_ALL            : diagonalization, state selective
  Precond_solver : DEFAULT
  stepsize       :    0.15000000                  energy_gap     :    0.08000000
  eps_taylor     :   0.10000E-15                  max_taylor     :             4
  ----------------------------------- OT ---------------------------------------

  Step     Update method      Time    Convergence         Total energy    Change
  ------------------------------------------------------------------------------
  Decoupling Energy:                                               0.0370647021
  Recoupling Energy:                                              -0.0063741479
     1 OT DIIS     0.15E+00   20.2     0.00129057      -255.9257316521 -2.56E+02
  Decoupling Energy:                                               0.0370576004
  Recoupling Energy:                                              -0.0063740314
     2 OT DIIS     0.15E+00    4.1     0.00057761      -255.9419521977 -1.62E-02
  Decoupling Energy:                                               0.0369596417
  Recoupling Energy:                                              -0.0063730135
     3 OT DIIS     0.15E+00    4.1     0.00038348      -255.9451217318 -3.17E-03
  Decoupling Energy:                                               0.0369795470
  Recoupling Energy:                                              -0.0063732416
     4 OT DIIS     0.15E+00    4.2     0.00009866      -255.9458275768 -7.06E-04
  Decoupling Energy:                                               0.0369716948
  Recoupling Energy:                                              -0.0063731487
     5 OT DIIS     0.15E+00    4.1     0.00003992      -255.9458779686 -5.04E-05
  Decoupling Energy:                                               0.0369737640
  Recoupling Energy:                                              -0.0063731649
     6 OT DIIS     0.15E+00    4.1     0.00001793      -255.9458894170 -1.14E-05
  Decoupling Energy:                                               0.0369741808
  Recoupling Energy:                                              -0.0063731680
     7 OT DIIS     0.15E+00    4.1     0.00000621      -255.9458922938 -2.88E-06
  Decoupling Energy:                                               0.0369727127
  Recoupling Energy:                                              -0.0063731518
     8 OT DIIS     0.15E+00    4.1     0.00000242      -255.9458926328 -3.39E-07
  Decoupling Energy:                                               0.0369731061
  Recoupling Energy:                                              -0.0063731556
     9 OT DIIS     0.15E+00    4.1     0.00000111      -255.9458926822 -4.94E-08
  Decoupling Energy:                                               0.0369728228
  Recoupling Energy:                                              -0.0063731526
    10 OT DIIS     0.15E+00    4.1     0.00000048      -255.9458926924 -1.02E-08

  *** SCF run converged in    10 steps ***


  Electronic density on regular grids:       -179.9999999999        0.0000000001
  Core density on regular grids:              180.9999999999       -0.0000000001
  Total charge density on r-space grids:        1.0000000000
  Total charge density g-space grids:           1.0000000000

  Overlap energy of the core charge distribution:               0.00001951532734
  Self energy of the core charge distribution:               -615.71576003586028
  Core Hamiltonian energy:                                    191.01363220817785
  Hartree energy:                                             248.20663869016030
  Exchange-correlation energy:                                -61.38430761263340
  Hartree-Fock Exchange energy:                               -18.10821018492830
  QM/MM Electrostatic energy:                                   0.04209472735459

  Total energy:                                              -255.94589269240186

  outer SCF iter =    1 RMS gradient =   0.48E-06 energy =       -255.9458926924
  outer SCF loop converged in   1 iterations or   10 steps

  Decoupling Energy:                                               0.0369728028
  Recoupling Energy:                                              -0.0063731523

 ENERGY| Total FORCE_EVAL ( QMMM ) energy [a.u.]:          -1088.110859624642217

 MD_INI| MD initialization
 MD_INI| Potential energy [hartree]                          -0.108811085962E+04
 MD_INI| Total kinetic energy [hartree]                       0.239300084734E+03
 MD_INI| QM kinetic energy [hartree]                          0.106639360339E+00
 MD_INI| Total temperature [K]                                        300.000000
 MD_INI| QM temperature [K]                                           330.137318
 MD_INI| Cell volume [bohr^3]                                 1.137316355424E+07
 MD_INI| Cell volume [ang^3]                                  1.685328937712E+06
 MD_INI| Cell lengths [bohr]      2.24884969E+02  2.24884969E+02  2.24884969E+02
 MD_INI| Cell lengths [ang]       1.19004000E+02  1.19004000E+02  1.19004000E+02
 MD_INI| Cell angles [deg]        9.00000000E+01  9.00000000E+01  9.00000000E+01

  Translating the system in order to center the QM fragment in the QM box.

 Number of electrons:                                                        180
 Number of occupied orbitals:                                                 90
 Number of molecular orbitals:                                                90

 Number of orbital functions:                                               1067
 Number of independent orbital functions:                                   1067

 Extrapolation method: ASPC


 SCF WAVEFUNCTION OPTIMIZATION

  ----------------------------------- OT ---------------------------------------
  Minimizer      : DIIS                : direct inversion
                                         in the iterative subspace
                                         using   7 DIIS vectors
                                         safer DIIS on
  Preconditioner : FULL_ALL            : diagonalization, state selective
  Precond_solver : DEFAULT
  stepsize       :    0.15000000                  energy_gap     :    0.08000000
  eps_taylor     :   0.10000E-15                  max_taylor     :             4
  ----------------------------------- OT ---------------------------------------

  Step     Update method      Time    Convergence         Total energy    Change
  ------------------------------------------------------------------------------
  Decoupling Energy:                                               0.0370014667
  Recoupling Energy:                                              -0.0063734172
     1 OT DIIS     0.15E+00   16.5     0.00075899      -255.7182133725 -2.56E+02
  Decoupling Energy:                                               0.0370082385
  Recoupling Energy:                                              -0.0063735355
     2 OT DIIS     0.15E+00    4.1     0.00032685      -255.7237312514 -5.52E-03
  Decoupling Energy:                                               0.0370087411
  Recoupling Energy:                                              -0.0063735590
     3 OT DIIS     0.15E+00    4.1     0.00019068      -255.7247685821 -1.04E-03
  Decoupling Energy:                                               0.0370199882
  Recoupling Energy:                                              -0.0063736817
     4 OT DIIS     0.15E+00    4.1     0.00006054      -255.7249610192 -1.92E-04
  Decoupling Energy:                                               0.0370216763
  Recoupling Energy:                                              -0.0063737045
     5 OT DIIS     0.15E+00    4.1     0.00001954      -255.7249775839 -1.66E-05
  Decoupling Energy:                                               0.0370210005
  Recoupling Energy:                                              -0.0063736984
     6 OT DIIS     0.15E+00    4.1     0.00000817      -255.7249798423 -2.26E-06
  Decoupling Energy:                                               0.0370221929
  Recoupling Energy:                                              -0.0063737124
     7 OT DIIS     0.15E+00    4.1     0.00000308      -255.7249803043 -4.62E-07
  Decoupling Energy:                                               0.0370222382
  Recoupling Energy:                                              -0.0063737132
     8 OT DIIS     0.15E+00    4.1     0.00000136      -255.7249803816 -7.72E-08
  Decoupling Energy:                                               0.0370224658
  Recoupling Energy:                                              -0.0063737159
     9 OT DIIS     0.15E+00    4.1     0.00000058      -255.7249803973 -1.57E-08

  *** SCF run converged in     9 steps ***


  Electronic density on regular grids:       -180.0000000000        0.0000000000
  Core density on regular grids:              180.9999999999       -0.0000000001
  Total charge density on r-space grids:        0.9999999999
  Total charge density g-space grids:           0.9999999999

  Overlap energy of the core charge distribution:               0.00002422739645
  Self energy of the core charge distribution:               -615.71576003586028
  Core Hamiltonian energy:                                    191.21095000029035
  Hartree energy:                                             248.07774807829853
  Exchange-correlation energy:                                -61.42683492621467
  Hartree-Fock Exchange energy:                               -18.12283148106520
  QM/MM Electrostatic energy:                                   0.25172373985123

  Total energy:                                              -255.72498039730354

  outer SCF iter =    1 RMS gradient =   0.58E-06 energy =       -255.7249803973
  outer SCF loop converged in   1 iterations or    9 steps

  Decoupling Energy:                                               0.0370224944
  Recoupling Energy:                                              -0.0063737164

 ENERGY| Total FORCE_EVAL ( QMMM ) energy [a.u.]:          -1059.962356567108145

 MD| ***************************************************************************
 MD| Step number                                                               1
 MD| Time [fs]                                                          1.000000
 MD| Conserved quantity [hartree]                            -0.841461427158E+03
 MD| ---------------------------------------------------------------------------
 MD|                                          Instantaneous             Averages
 MD| CPU time per MD step [s]                    278.192388           278.192388
 MD| Energy drift per atom [K]           0.138202491184E+02   0.000000000000E+00
 MD| Potential energy [hartree]         -0.105996235657E+04  -0.105996235657E+04
 MD| Total kinetic energy [hartree]      0.218500929409E+03   0.218500929409E+03
 MD| QM kinetic energy [hartree]         0.121347284453E+00   0.121347284453E+00
 MD| Total temperature [K]                       273.925013           273.925013
 MD| QM temperature [K]                          375.670549           375.670549
 MD| ***************************************************************************

  Translating the system in order to center the QM fragment in the QM box.

 Number of electrons:                                                        180
 Number of occupied orbitals:                                                 90
 Number of molecular orbitals:                                                90

 Number of orbital functions:                                               1067
 Number of independent orbital functions:                                   1067

 Extrapolation method: ASPC


 SCF WAVEFUNCTION OPTIMIZATION

  ----------------------------------- OT ---------------------------------------
  Minimizer      : DIIS                : direct inversion
                                         in the iterative subspace
                                         using   7 DIIS vectors
                                         safer DIIS on
  Preconditioner : FULL_ALL            : diagonalization, state selective
  Precond_solver : DEFAULT
  stepsize       :    0.15000000                  energy_gap     :    0.08000000
  eps_taylor     :   0.10000E-15                  max_taylor     :             4
  ----------------------------------- OT ---------------------------------------

  Step     Update method      Time    Convergence         Total energy    Change
  ------------------------------------------------------------------------------
  Decoupling Energy:                                               0.0370781901
  Recoupling Energy:                                              -0.0063743357
     1 OT DIIS     0.15E+00   16.5     0.00029255      -255.3622519194 -2.55E+02
  Decoupling Energy:                                               0.0370714453
  Recoupling Energy:                                              -0.0063742686
     2 OT DIIS     0.15E+00    4.0     0.00012379      -255.3630876984 -8.36E-04
  Decoupling Energy:                                               0.0370747179
  Recoupling Energy:                                              -0.0063743003
     3 OT DIIS     0.15E+00    4.0     0.00005679      -255.3632550208 -1.67E-04
  Decoupling Energy:                                               0.0370720746
  Recoupling Energy:                                              -0.0063742776
     4 OT DIIS     0.15E+00    4.1     0.00001757      -255.3632738126 -1.88E-05
  Decoupling Energy:                                               0.0370725457
  Recoupling Energy:                                              -0.0063742816
     5 OT DIIS     0.15E+00    4.1     0.00000682      -255.3632753395 -1.53E-06
  Decoupling Energy:                                               0.0370729627
  Recoupling Energy:                                              -0.0063742866
     6 OT DIIS     0.15E+00    4.0     0.00000313      -255.3632755972 -2.58E-07
  Decoupling Energy:                                               0.0370729475
  Recoupling Energy:                                              -0.0063742866
     7 OT DIIS     0.15E+00    4.1     0.00000105      -255.3632756581 -6.10E-08
  Decoupling Energy:                                               0.0370730054
  Recoupling Energy:                                              -0.0063742872
     8 OT DIIS     0.15E+00    4.1     0.00000048      -255.3632756683 -1.02E-08

  *** SCF run converged in     8 steps ***


  Electronic density on regular grids:       -180.0000000000       -0.0000000000
  Core density on regular grids:              180.9999999999       -0.0000000001
  Total charge density on r-space grids:        0.9999999998
  Total charge density g-space grids:           0.9999999998

  Overlap energy of the core charge distribution:               0.00005088943491
  Self energy of the core charge distribution:               -615.71576003586028
  Core Hamiltonian energy:                                    191.44418767086950
  Hartree energy:                                             247.94136537270737
  Exchange-correlation energy:                                -61.47332459973701
  Hartree-Fock Exchange energy:                               -18.13880627353235
  QM/MM Electrostatic energy:                                   0.57901130781110

  Total energy:                                              -255.36327566830678

  outer SCF iter =    1 RMS gradient =   0.48E-06 energy =       -255.3632756683
  outer SCF loop converged in   1 iterations or    8 steps

  Decoupling Energy:                                               0.0370730221
  Recoupling Energy:                                              -0.0063742875

 ENERGY| Total FORCE_EVAL ( QMMM ) energy [a.u.]:          -1061.235329061327093

 MD| ***************************************************************************
 MD| Step number                                                               2
 MD| Time [fs]                                                          2.000000
 MD| Conserved quantity [hartree]                            -0.842817774624E+03
 MD| ---------------------------------------------------------------------------
 MD|                                          Instantaneous             Averages
 MD| CPU time per MD step [s]                    129.346502           203.769445
 MD| Energy drift per atom [K]           0.112696744888E+02   0.563483724440E+01
 MD| Potential energy [hartree]         -0.106123532906E+04  -0.106059884281E+04
 MD| Total kinetic energy [hartree]      0.218417554438E+03   0.218459241923E+03
 MD| QM kinetic energy [hartree]         0.111577913509E+00   0.116462598981E+00
 MD| Total temperature [K]                       273.820489           273.872751
 MD| QM temperature [K]                          345.426239           360.548394
 MD| ***************************************************************************

  Translating the system in order to center the QM fragment in the QM box.

 Number of electrons:                                                        180
 Number of occupied orbitals:                                                 90
 Number of molecular orbitals:                                                90

 Number of orbital functions:                                               1067
 Number of independent orbital functions:                                   1067

 Extrapolation method: ASPC


 SCF WAVEFUNCTION OPTIMIZATION

  ----------------------------------- OT ---------------------------------------
  Minimizer      : DIIS                : direct inversion
                                         in the iterative subspace
                                         using   7 DIIS vectors
                                         safer DIIS on
  Preconditioner : FULL_ALL            : diagonalization, state selective
  Precond_solver : DEFAULT
  stepsize       :    0.15000000                  energy_gap     :    0.08000000
  eps_taylor     :   0.10000E-15                  max_taylor     :             4
  ----------------------------------- OT ---------------------------------------

  Step     Update method      Time    Convergence         Total energy    Change
  ------------------------------------------------------------------------------
  Decoupling Energy:                                               0.0371231365
  Recoupling Energy:                                              -0.0063748339
     1 OT DIIS     0.15E+00   16.5     0.00057312      -254.8840261555 -2.55E+02
  Decoupling Energy:                                               0.0371263945
  Recoupling Energy:                                              -0.0063748789
     2 OT DIIS     0.15E+00    4.1     0.00022567      -254.8871520365 -3.13E-03
  Decoupling Energy:                                               0.0371270663
  Recoupling Energy:                                              -0.0063748844
     3 OT DIIS     0.15E+00    4.1     0.00008228      -254.8877074031 -5.55E-04
  Decoupling Energy:                                               0.0371223334
  Recoupling Energy:                                              -0.0063748373
     4 OT DIIS     0.15E+00    4.1     0.00002753      -254.8877576353 -5.02E-05
  Decoupling Energy:                                               0.0371233143
  Recoupling Energy:                                              -0.0063748478
     5 OT DIIS     0.15E+00    4.1     0.00001038      -254.8877614366 -3.80E-06
  Decoupling Energy:                                               0.0371231600
  Recoupling Energy:                                              -0.0063748451
     6 OT DIIS     0.15E+00    4.1     0.00000440      -254.8877620231 -5.87E-07
  Decoupling Energy:                                               0.0371230803
  Recoupling Energy:                                              -0.0063748446
     7 OT DIIS     0.15E+00    4.1     0.00000136      -254.8877621136 -9.05E-08
  Decoupling Energy:                                               0.0371230830
  Recoupling Energy:                                              -0.0063748446
     8 OT DIIS     0.15E+00    4.1     0.00000059      -254.8877621245 -1.08E-08

  *** SCF run converged in     8 steps ***


  Electronic density on regular grids:       -180.0000000003       -0.0000000003
  Core density on regular grids:              180.9999999999       -0.0000000001
  Total charge density on r-space grids:        0.9999999996
  Total charge density g-space grids:           0.9999999996

  Overlap energy of the core charge distribution:               0.00005124526120
  Self energy of the core charge distribution:               -615.71576003586028
  Core Hamiltonian energy:                                    191.49125999518009
  Hartree energy:                                             247.90727989397334
  Exchange-correlation energy:                                -61.48094735648036
  Hartree-Fock Exchange energy:                               -18.14140201697204
  QM/MM Electrostatic energy:                                   1.05175615044315

  Total energy:                                              -254.88776212445492

  outer SCF iter =    1 RMS gradient =   0.59E-06 energy =       -254.8877621245
  outer SCF loop converged in   1 iterations or    8 steps

  Decoupling Energy:                                               0.0371230827
  Recoupling Energy:                                              -0.0063748446

 ENERGY| Total FORCE_EVAL ( QMMM ) energy [a.u.]:          -1082.045340388257728

 MD| ***************************************************************************
 MD| Step number                                                               3
 MD| Time [fs]                                                          3.000000
 MD| Conserved quantity [hartree]                            -0.846392350434E+03
 MD| ---------------------------------------------------------------------------
 MD|                                          Instantaneous             Averages
 MD| CPU time per MD step [s]                    131.313853           179.617581
 MD| Energy drift per atom [K]           0.454778160934E+01   0.527248536605E+01
 MD| Potential energy [hartree]         -0.108204534039E+04  -0.106774767534E+04
 MD| Total kinetic energy [hartree]      0.235652989954E+03   0.224190491267E+03
 MD| QM kinetic energy [hartree]         0.117355749123E+00   0.116760315695E+00
 MD| Total temperature [K]                       295.427798           281.057767
 MD| QM temperature [K]                          363.313435           361.470074
 MD| ***************************************************************************

  Translating the system in order to center the QM fragment in the QM box.

 Number of electrons:                                                        180
 Number of occupied orbitals:                                                 90
 Number of molecular orbitals:                                                90

 Number of orbital functions:                                               1067
 Number of independent orbital functions:                                   1067

 Extrapolation method: ASPC


 SCF WAVEFUNCTION OPTIMIZATION

  ----------------------------------- OT ---------------------------------------
  Minimizer      : DIIS                : direct inversion
                                         in the iterative subspace
                                         using   7 DIIS vectors
                                         safer DIIS on
  Preconditioner : FULL_ALL            : diagonalization, state selective
  Precond_solver : DEFAULT
  stepsize       :    0.15000000                  energy_gap     :    0.08000000
  eps_taylor     :   0.10000E-15                  max_taylor     :             4
  ----------------------------------- OT ---------------------------------------

  Step     Update method      Time    Convergence         Total energy    Change
  ------------------------------------------------------------------------------
  Decoupling Energy:                                               0.0371655414
  Recoupling Energy:                                              -0.0063753290
     1 OT DIIS     0.15E+00   16.5     0.00026656      -254.3373028994 -2.54E+02
  Decoupling Energy:                                               0.0371741967
  Recoupling Energy:                                              -0.0063754093
     2 OT DIIS     0.15E+00    4.1     0.00010690      -254.3379931536 -6.90E-04
  Decoupling Energy:                                               0.0371692194
  Recoupling Energy:                                              -0.0063753580
     3 OT DIIS     0.15E+00    4.1     0.00003998      -254.3381212730 -1.28E-04
  Decoupling Energy:                                               0.0371714329
  Recoupling Energy:                                              -0.0063753808
     4 OT DIIS     0.15E+00    4.1     0.00001260      -254.3381311580 -9.89E-06
  Decoupling Energy:                                               0.0371702653
  Recoupling Energy:                                              -0.0063753694
     5 OT DIIS     0.15E+00    4.1     0.00000531      -254.3381319938 -8.36E-07
  Decoupling Energy:                                               0.0371705243
  Recoupling Energy:                                              -0.0063753714
     6 OT DIIS     0.15E+00    4.0     0.00000187      -254.3381321286 -1.35E-07
  Decoupling Energy:                                               0.0371705349
  Recoupling Energy:                                              -0.0063753717
     7 OT DIIS     0.15E+00    4.1     0.00000064      -254.3381321470 -1.84E-08

  *** SCF run converged in     7 steps ***


  Electronic density on regular grids:       -179.9999999999        0.0000000001
  Core density on regular grids:              180.9999999999       -0.0000000001
  Total charge density on r-space grids:        1.0000000000
  Total charge density g-space grids:           1.0000000000

  Overlap energy of the core charge distribution:               0.00002358464776
  Self energy of the core charge distribution:               -615.71576003586028
  Core Hamiltonian energy:                                    191.34734428912557
  Hartree energy:                                             247.97608087103558
  Exchange-correlation energy:                                -61.44937216735066
  Hartree-Fock Exchange energy:                               -18.13041959514980
  QM/MM Electrostatic energy:                                   1.63397090651568

  Total energy:                                              -254.33813214703613

  outer SCF iter =    1 RMS gradient =   0.64E-06 energy =       -254.3381321470
  outer SCF loop converged in   1 iterations or    7 steps

  Decoupling Energy:                                               0.0371704667
  Recoupling Energy:                                              -0.0063753710

 ENERGY| Total FORCE_EVAL ( QMMM ) energy [a.u.]:          -1079.714053657397244

 MD| ***************************************************************************
 MD| Step number                                                               4
 MD| Time [fs]                                                          4.000000
 MD| Conserved quantity [hartree]                            -0.842113597365E+03
 MD| ---------------------------------------------------------------------------
 MD|                                          Instantaneous             Averages
 MD| CPU time per MD step [s]                    125.397668           166.062603
 MD| Energy drift per atom [K]           0.125938607290E+02   0.710282920678E+01
 MD| Potential energy [hartree]         -0.107971405366E+04  -0.107073926992E+04
 MD| Total kinetic energy [hartree]      0.237600456293E+03   0.227542982523E+03
 MD| QM kinetic energy [hartree]         0.148328188718E+00   0.124652283951E+00
 MD| Total temperature [K]                       297.869251           285.260638
 MD| QM temperature [K]                          459.198839           385.902265
 MD| ***************************************************************************

  Translating the system in order to center the QM fragment in the QM box.

 Number of electrons:                                                        180
 Number of occupied orbitals:                                                 90
 Number of molecular orbitals:                                                90

 Number of orbital functions:                                               1067
 Number of independent orbital functions:                                   1067

 Extrapolation method: ASPC


 SCF WAVEFUNCTION OPTIMIZATION

  ----------------------------------- OT ---------------------------------------
  Minimizer      : DIIS                : direct inversion
                                         in the iterative subspace
                                         using   7 DIIS vectors
                                         safer DIIS on
  Preconditioner : FULL_ALL            : diagonalization, state selective
  Precond_solver : DEFAULT
  stepsize       :    0.15000000                  energy_gap     :    0.08000000
  eps_taylor     :   0.10000E-15                  max_taylor     :             4
  ----------------------------------- OT ---------------------------------------

  Step     Update method      Time    Convergence         Total energy    Change
  ------------------------------------------------------------------------------
  Decoupling Energy:                                               0.0372100365
  Recoupling Energy:                                              -0.0063758429
     1 OT DIIS     0.15E+00   16.6     0.00032150      -253.7449303844 -2.54E+02
  Decoupling Energy:                                               0.0372073153
  Recoupling Energy:                                              -0.0063758031
     2 OT DIIS     0.15E+00    4.1     0.00013163      -253.7458489195 -9.19E-04
  Decoupling Energy:                                               0.0372092203
  Recoupling Energy:                                              -0.0063758199
     3 OT DIIS     0.15E+00    4.1     0.00006215      -253.7460078907 -1.59E-04
  Decoupling Energy:                                               0.0372088933
  Recoupling Energy:                                              -0.0063758163
     4 OT DIIS     0.15E+00    4.1     0.00002401      -253.7460389594 -3.11E-05
  Decoupling Energy:                                               0.0372096077
  Recoupling Energy:                                              -0.0063758218
     5 OT DIIS     0.15E+00    4.1     0.00000518      -253.7460414337 -2.47E-06
  Decoupling Energy:                                               0.0372092914
  Recoupling Energy:                                              -0.0063758192
     6 OT DIIS     0.15E+00    4.1     0.00000248      -253.7460415752 -1.42E-07
  Decoupling Energy:                                               0.0372093035
  Recoupling Energy:                                              -0.0063758191
     7 OT DIIS     0.15E+00    4.1     0.00000089      -253.7460416064 -3.12E-08

  *** SCF run converged in     7 steps ***


  Electronic density on regular grids:       -180.0000000000       -0.0000000000
  Core density on regular grids:              180.9999999999       -0.0000000001
  Total charge density on r-space grids:        0.9999999998
  Total charge density g-space grids:           0.9999999998

  Overlap energy of the core charge distribution:               0.00001841792483
  Self energy of the core charge distribution:               -615.71576003586028
  Core Hamiltonian energy:                                    191.22475947090570
  Hartree energy:                                             248.04793890614678
  Exchange-correlation energy:                                -61.41799347223382
  Hartree-Fock Exchange energy:                               -18.11952359676568
  QM/MM Electrostatic energy:                                   2.23451870345015

  Total energy:                                              -253.74604160643230

  outer SCF iter =    1 RMS gradient =   0.89E-06 energy =       -253.7460416064
  outer SCF loop converged in   1 iterations or    7 steps

  Decoupling Energy:                                               0.0372093266
  Recoupling Energy:                                              -0.0063758194

 ENERGY| Total FORCE_EVAL ( QMMM ) energy [a.u.]:          -1094.307011148315269

 MD| ***************************************************************************
 MD| Step number                                                               5
 MD| Time [fs]                                                          5.000000
 MD| Conserved quantity [hartree]                            -0.848389415755E+03
 MD| ---------------------------------------------------------------------------
 MD|                                          Instantaneous             Averages
 MD| CPU time per MD step [s]                    126.910159           158.232114
 MD| Energy drift per atom [K]           0.792354428298E+00   0.584073425108E+01
 MD| Potential energy [hartree]         -0.109430701115E+04  -0.107545281816E+04
 MD| Total kinetic energy [hartree]      0.245917595393E+03   0.231217905097E+03
 MD| QM kinetic energy [hartree]         0.157565207547E+00   0.131234868670E+00
 MD| Total temperature [K]                       308.296082           289.867727
 MD| QM temperature [K]                          487.795078           406.280828
 MD| ***************************************************************************

  Translating the system in order to center the QM fragment in the QM box.

 Number of electrons:                                                        180
 Number of occupied orbitals:                                                 90
 Number of molecular orbitals:                                                90

 Number of orbital functions:                                               1067
 Number of independent orbital functions:                                   1067

 Extrapolation method: ASPC


 SCF WAVEFUNCTION OPTIMIZATION

  ----------------------------------- OT ---------------------------------------
  Minimizer      : DIIS                : direct inversion
                                         in the iterative subspace
                                         using   7 DIIS vectors
                                         safer DIIS on
  Preconditioner : FULL_ALL            : diagonalization, state selective
  Precond_solver : DEFAULT
  stepsize       :    0.15000000                  energy_gap     :    0.08000000
  eps_taylor     :   0.10000E-15                  max_taylor     :             4
  ----------------------------------- OT ---------------------------------------

  Step     Update method      Time    Convergence         Total energy    Change
  ------------------------------------------------------------------------------
  Decoupling Energy:                                               0.0372441238
  Recoupling Energy:                                              -0.0063762186
     1 OT DIIS     0.15E+00   16.5     0.00048947      -253.1925184941 -2.53E+02
  Decoupling Energy:                                               0.0372417907
  Recoupling Energy:                                              -0.0063762249
     2 OT DIIS     0.15E+00    4.1     0.00019212      -253.1946659134 -2.15E-03
  Decoupling Energy:                                               0.0372398703
  Recoupling Energy:                                              -0.0063761972
     3 OT DIIS     0.15E+00    4.1     0.00008082      -253.1950228952 -3.57E-04
  Decoupling Energy:                                               0.0372397086
  Recoupling Energy:                                              -0.0063761970
     4 OT DIIS     0.15E+00    4.1     0.00002279      -253.1950817787 -5.89E-05
  Decoupling Energy:                                               0.0372388562
  Recoupling Energy:                                              -0.0063761877
     5 OT DIIS     0.15E+00    4.1     0.00000848      -253.1950843946 -2.62E-06
  Decoupling Energy:                                               0.0372394696
  Recoupling Energy:                                              -0.0063761927
     6 OT DIIS     0.15E+00    4.1     0.00000288      -253.1950847601 -3.65E-07
  Decoupling Energy:                                               0.0372392253
  Recoupling Energy:                                              -0.0063761904
     7 OT DIIS     0.15E+00    4.1     0.00000085      -253.1950848012 -4.11E-08

  *** SCF run converged in     7 steps ***


  Electronic density on regular grids:       -180.0000000000       -0.0000000000
  Core density on regular grids:              180.9999999999       -0.0000000001
  Total charge density on r-space grids:        0.9999999998
  Total charge density g-space grids:           0.9999999998

  Overlap energy of the core charge distribution:               0.00001843297671
  Self energy of the core charge distribution:               -615.71576003586028
  Core Hamiltonian energy:                                    191.21896594753201
  Hartree energy:                                             248.05852360229608
  Exchange-correlation energy:                                -61.40903232258982
  Hartree-Fock Exchange energy:                               -18.11645578057591
  QM/MM Electrostatic energy:                                   2.76865535501487

  Total energy:                                              -253.19508480120629

  outer SCF iter =    1 RMS gradient =   0.85E-06 energy =       -253.1950848012
  outer SCF loop converged in   1 iterations or    7 steps

  Decoupling Energy:                                               0.0372392252
  Recoupling Energy:                                              -0.0063761903

 ENERGY| Total FORCE_EVAL ( QMMM ) energy [a.u.]:          -1057.339965496957575

 MD| ***************************************************************************
 MD| Step number                                                               6
 MD| Time [fs]                                                          6.000000
 MD| Conserved quantity [hartree]                            -0.842900323548E+03
 MD| ---------------------------------------------------------------------------
 MD|                                          Instantaneous             Averages
 MD| CPU time per MD step [s]                    125.819426           152.829999
 MD| Energy drift per atom [K]           0.111144434758E+02   0.671968578854E+01
 MD| Potential energy [hartree]         -0.105733996550E+04  -0.107243400939E+04
 MD| Total kinetic energy [hartree]      0.214439641949E+03   0.228421527906E+03
 MD| QM kinetic energy [hartree]         0.141133621410E+00   0.132884660793E+00
 MD| Total temperature [K]                       268.833555           286.362031
 MD| QM temperature [K]                          436.925682           411.388304
 MD| ***************************************************************************

 -------------------------------------------------------------------------------
 -                                                                             -
 -                                DBCSR STATISTICS                             -
 -                                                                             -
 -------------------------------------------------------------------------------
 COUNTER                                    TOTAL       BLAS       SMM       ACC
 flops     9 x    26 x    26              2810808     100.0%      0.0%      0.0%
 flops    22 x    26 x    26              7287280     100.0%      0.0%      0.0%
 flops     9 x    32 x    32              8515584     100.0%      0.0%      0.0%
 flops    31 x    26 x    26             11735360     100.0%      0.0%      0.0%
 flops    26 x    26 x    26             13709280     100.0%      0.0%      0.0%
 flops    40 x    26 x    26             15142400     100.0%      0.0%      0.0%
 flops    22 x    32 x    32             22077440     100.0%      0.0%      0.0%
 flops    31 x    26 x    32             28887040     100.0%      0.0%      0.0%
 flops    31 x    32 x    26             28887040     100.0%      0.0%      0.0%
 flops    26 x    26 x    32             33745920     100.0%      0.0%      0.0%
 flops    26 x    32 x    26             33745920     100.0%      0.0%      0.0%
 flops    32 x    26 x    26             33745920     100.0%      0.0%      0.0%
 flops    93 x    26 x    26             35206080     100.0%      0.0%      0.0%
 flops    40 x    32 x    26             37273600     100.0%      0.0%      0.0%
 flops    40 x    26 x    32             37273600     100.0%      0.0%      0.0%
 flops    53 x    26 x    26             40127360     100.0%      0.0%      0.0%
 flops    31 x    26 x   261             53012232     100.0%      0.0%      0.0%
 flops    71 x    26 x    26             53755520     100.0%      0.0%      0.0%
 flops    31 x    26 x   266             54027792     100.0%      0.0%      0.0%
 flops    84 x    26 x    26             63598080     100.0%      0.0%      0.0%
 flops    40 x    26 x   261             68402880     100.0%      0.0%      0.0%
 flops    40 x    26 x   266             69713280     100.0%      0.0%      0.0%
 flops    31 x    32 x    32             71106560     100.0%      0.0%      0.0%
 flops    26 x    26 x   261             81513432     100.0%      0.0%      0.0%
 flops    32 x    32 x    26             83066880     100.0%      0.0%      0.0%
 flops    26 x    32 x    32             83066880     100.0%      0.0%      0.0%
 flops    32 x    26 x    32             83066880     100.0%      0.0%      0.0%
 flops    26 x    26 x   266             83074992     100.0%      0.0%      0.0%
 flops    93 x    26 x    32             86661120     100.0%      0.0%      0.0%
 flops    93 x    32 x    26             86661120     100.0%      0.0%      0.0%
 flops    40 x    32 x    32             91750400     100.0%      0.0%      0.0%
 flops    53 x    26 x    32             98775040     100.0%      0.0%      0.0%
 flops    53 x    32 x    26             98775040     100.0%      0.0%      0.0%
 flops    31 x    26 x   270            109680480     100.0%      0.0%      0.0%
 flops    62 x    26 x    26            117353600     100.0%      0.0%      0.0%
 flops    31 x    32 x   261            130491648     100.0%      0.0%      0.0%
 flops    71 x    32 x    26            132321280     100.0%      0.0%      0.0%
 flops    71 x    26 x    32            132321280     100.0%      0.0%      0.0%
 flops    31 x    32 x   266            132991488     100.0%      0.0%      0.0%
 flops    40 x    26 x   270            141523200     100.0%      0.0%      0.0%
 flops    84 x    26 x    32            156549120     100.0%      0.0%      0.0%
 flops    84 x    32 x    26            156549120     100.0%      0.0%      0.0%
 flops    93 x    26 x   261            159036696     100.0%      0.0%      0.0%
 flops    93 x    26 x   266            162083376     100.0%      0.0%      0.0%
 flops     9 x     9 x    26            165405240     100.0%      0.0%      0.0%
 flops    40 x    32 x   261            168376320     100.0%      0.0%      0.0%
 flops    26 x    26 x   270            168648480     100.0%      0.0%      0.0%
 flops    40 x    32 x   266            171601920     100.0%      0.0%      0.0%
 flops    53 x    26 x   261            181267632     100.0%      0.0%      0.0%
 flops    53 x    26 x   266            184740192     100.0%      0.0%      0.0%
 flops    26 x    32 x   261            200648448     100.0%      0.0%      0.0%
 flops    32 x    26 x   261            200648448     100.0%      0.0%      0.0%
 flops    32 x    32 x    32            204472320     100.0%      0.0%      0.0%
 flops    26 x    32 x   266            204492288     100.0%      0.0%      0.0%
 flops    32 x    26 x   266            204492288     100.0%      0.0%      0.0%
 flops    93 x    32 x    32            213319680     100.0%      0.0%      0.0%
 flops    71 x    26 x   261            242830224     100.0%      0.0%      0.0%
 flops    53 x    32 x    32            243138560     100.0%      0.0%      0.0%
 flops    71 x    26 x   266            247482144     100.0%      0.0%      0.0%
 flops    31 x    32 x   270            269982720     100.0%      0.0%      0.0%
 flops    84 x    26 x   261            287292096     100.0%      0.0%      0.0%
 flops    62 x    32 x    26            288870400     100.0%      0.0%      0.0%
 flops    62 x    26 x    32            288870400     100.0%      0.0%      0.0%
 flops    84 x    26 x   266            292795776     100.0%      0.0%      0.0%
 flops    71 x    32 x    32            325713920     100.0%      0.0%      0.0%
 flops    93 x    26 x   270            329041440     100.0%      0.0%      0.0%
 flops    40 x    32 x   270            348364800     100.0%      0.0%      0.0%
 flops    53 x    26 x   270            375036480     100.0%      0.0%      0.0%
 flops    84 x    32 x    32            385351680     100.0%      0.0%      0.0%
 flops    93 x    32 x   261            391474944     100.0%      0.0%      0.0%
 flops    93 x    32 x   266            398974464     100.0%      0.0%      0.0%
 flops     9 x     9 x    32            407151360     100.0%      0.0%      0.0%
 flops    26 x    32 x   270            415134720     100.0%      0.0%      0.0%
 flops    32 x    26 x   270            415134720     100.0%      0.0%      0.0%
 flops    22 x     9 x    26            415855440     100.0%      0.0%      0.0%
 flops     9 x    22 x    26            416576160     100.0%      0.0%      0.0%
 flops    53 x    32 x   261            446197248     100.0%      0.0%      0.0%
 flops    53 x    32 x   266            454745088     100.0%      0.0%      0.0%
 flops    32 x    32 x   261            493903872     100.0%      0.0%      0.0%
 flops    71 x    26 x   270            502407360     100.0%      0.0%      0.0%
 flops    32 x    32 x   266            503365632     100.0%      0.0%      0.0%
 flops    62 x    26 x   261            530122320     100.0%      0.0%      0.0%
 flops    62 x    26 x   266            540277920     100.0%      0.0%      0.0%
 flops    84 x    26 x   270            594397440     100.0%      0.0%      0.0%
 flops    71 x    32 x   261            597735936     100.0%      0.0%      0.0%
 flops    71 x    32 x   266            609186816     100.0%      0.0%      0.0%
 flops    84 x    32 x   261            707180544     100.0%      0.0%      0.0%
 flops    62 x    32 x    32            711065600     100.0%      0.0%      0.0%
 flops    84 x    32 x   266            720728064     100.0%      0.0%      0.0%
 flops     9 x    26 x     9            802701900     100.0%      0.0%      0.0%
 flops    93 x    32 x   270            809948160     100.0%      0.0%      0.0%
 flops    53 x    32 x   270            923166720     100.0%      0.0%      0.0%
 flops    32 x    32 x   270           1021870080     100.0%      0.0%      0.0%
 flops    22 x     9 x    32           1023644160     100.0%      0.0%      0.0%
 flops     9 x    22 x    32           1025418240     100.0%      0.0%      0.0%
 flops    62 x    26 x   270           1096804800     100.0%      0.0%      0.0%
 flops    22 x    22 x    26           1109908800     100.0%      0.0%      0.0%
 flops    71 x    32 x   270           1236695040     100.0%      0.0%      0.0%
 flops    62 x    32 x   261           1304916480     100.0%      0.0%      0.0%
 flops    62 x    32 x   266           1329914880     100.0%      0.0%      0.0%
 flops    84 x    32 x   270           1463132160     100.0%      0.0%      0.0%
 flops     9 x    32 x     9           1975881600     100.0%      0.0%      0.0%
 flops     9 x    26 x    22           2081079000     100.0%      0.0%      0.0%
 flops    22 x    26 x     9           2081079000     100.0%      0.0%      0.0%
 flops    62 x    32 x   270           2699827200     100.0%      0.0%      0.0%
 flops    22 x    22 x    32           2732083200     100.0%      0.0%      0.0%
 flops    22 x    32 x     9           5122656000     100.0%      0.0%      0.0%
 flops     9 x    32 x    22           5122656000     100.0%      0.0%      0.0%
 flops    22 x    26 x    22           5395390000     100.0%      0.0%      0.0%
 flops    22 x    32 x    22          13280960000     100.0%      0.0%      0.0%
 flops inhomo. stacks                  5191905600     100.0%      0.0%      0.0%
 flops total                        78.527239E+09     100.0%      0.0%      0.0%
 flops max/rank                      7.081808E+09     100.0%      0.0%      0.0%
 matmuls inhomo. stacks                      8064     100.0%      0.0%      0.0%
 matmuls total                            3005046     100.0%      0.0%      0.0%
 number of processed stacks                271350     100.0%      0.0%      0.0%
 average stack size                                    11.1       0.0       0.0
 marketing flops                    85.671830E+09
 -------------------------------------------------------------------------------
 # multiplications                           1286
 max memory usage/rank               3.879076E+09
 # max total images/rank                        1
 # max 3D layers                                1
 # MPI messages exchanged                  123456
 MPI messages size (bytes):
  total size                        11.173573E+09
  min size                           0.000000E+00
  max size                         583.200000E+03
  average size                      90.506516E+03
 MPI breakdown and total messages size (bytes):
             size <=      128               37485                        0
       128 < size <=     8192               28683                206521632
      8192 < size <=    32768                   0                        0
     32768 < size <=   131072               42840               2742616800
    131072 < size <=  4194304               14448               8224444536
   4194304 < size <= 16777216                   0                        0
  16777216 < size                               0                        0
 -------------------------------------------------------------------------------
 -                                                                             -
 -                      DBCSR MESSAGE PASSING PERFORMANCE                      -
 -                                                                             -
 -------------------------------------------------------------------------------
 ROUTINE             CALLS      AVE VOLUME [Bytes]
 MP_Bcast              111                     12.
 MP_Allreduce         6970                      9.
 MP_Alltoall          5344                  20041.
 MP_ISend            20548                  38352.
 MP_IRecv            20548                  36301.
 -------------------------------------------------------------------------------

 -------------------------------------------------------------------------------
 -                                                                             -
 -                                GRID STATISTICS                              -
 -                                                                             -
 -------------------------------------------------------------------------------
 LP    KERNEL             BACKEND                              COUNT     PERCENT
 2     collocate ortho    REF                                1126269      19.20%
 2     integrate ortho    REF                                1106014      18.85%
 1     collocate ortho    REF                                 943978      16.09%
 1     integrate ortho    REF                                 870340      14.83%
 3     integrate ortho    REF                                 570062       9.72%
 3     collocate ortho    REF                                 500530       8.53%
 0     collocate ortho    REF                                 281245       4.79%
 0     integrate ortho    REF                                 249988       4.26%
 4     integrate ortho    REF                                 121240       2.07%
 4     collocate ortho    REF                                  73823       1.26%
 5     integrate ortho    REF                                   8201       0.14%
 0     collocate general  REF                                   7616       0.13%
 1     integrate general  REF                                   7616       0.13%
 -------------------------------------------------------------------------------

 MEMORY| Estimated peak process memory [MiB]                                3776

 -------------------------------------------------------------------------------
 -                                                                             -
 -                         MESSAGE PASSING PERFORMANCE                         -
 -                                                                             -
 -------------------------------------------------------------------------------

 ROUTINE             CALLS      AVE VOLUME [Bytes]
 MP_Group                8
 MP_Bcast             6935               10576129.
 MP_Allreduce         2453                1675496.
 MP_Sync               430
 MP_Alltoall          1344               71189870.
 MP_ISendRecv         6195                 195614.
 MP_Wait             12964
 MP_comm_split          14
 MP_ISend             5887                1348673.
 MP_IRecv             5880                1349303.
 MP_Recv                21                 196328.
 -------------------------------------------------------------------------------


 -------------------------------------------------------------------------------
 -                                                                             -
 -                           R E F E R E N C E S                               -
 -                                                                             -
 -------------------------------------------------------------------------------
 
 CP2K version 8.2, the CP2K developers group (2021).
 CP2K is freely available from https://www.cp2k.org/ .

 Kuehne,Thomas D.; Iannuzzi,Marcella; Del Ben,Mauro;
 Rybkin,Vladimir V.; Seewald,Patrick; Stein,Frederick; Laino,Teodoro;
 Khaliullin,Rustam Z.; Schuett,Ole; Schiffmann,Florian; Golze,Dorothea;
 Wilhelm,Jan; Chulkov,Sergey; Bani-Hashemian,Mohammad Hossein;
 Weber,Valery; Borstnik,Urban; Taillefumier,Mathieu;
 Jakobovits,Alice Shoshana; Lazzaro,Alfio; Pabst,Hans; Mueller,Tiziano;
 Schade,Robert; Guidon,Manuel; Andermatt,Samuel; Holmberg,Nico;
 Schenter,Gregory K.; Hehn,Anna; Bussy,Augustin; Belleflamme,Fabian;
 Tabacchi,Gloria; Gloess,Andreas; Lass,Michael; Bethune,Iain;
 Mundy,Christopher J.; Plessl,Christian; Watkins,Matt;
 VandeVondele,Joost; Krack,Matthias; Hutter,Juerg. 
 The Journal of Chemical Physics, 152 (19), (2020). 
 CP2K: An electronic structure and molecular dynamics software package -
 Quickstep: Efficient and accurate electronic structure calculations.
 https://doi.org/10.1063/5.0007045

 Schuett, Ole; Messmer, Peter; Hutter, Juerg; VandeVondele, Joost. 
 Electronic Structure Calculations on Graphics Processing Units, John
 Wiley & Sons, Ltd, 173-190 (2016). 
 GPU-Accelerated Sparse Matrix-Matrix Multiplication for
 Linear Scaling Density Functional Theory.
 https://doi.org/10.1002/9781118670712.ch8

 Borstnik, U; VandeVondele, J; Weber, V; Hutter, J. 
 PARALLEL COMPUTING, 40 (5-6), 47-58 (2014). 
 Sparse matrix multiplication: The distributed block-compressed sparse
 row library.
 https://doi.org/10.1016/j.parco.2014.03.012

 Hutter, J; Iannuzzi, M; Schiffmann, F; VandeVondele, J. 
 WIREs Comput Mol Sci., 4 (1), 15-25 (2014). 
 CP2K: atomistic simulations of condensed matter systems.
 https://doi.org/10.1002/wcms.1159

 Marek, A; Blum, V; Johanni, R; Havu, V; Lang, B; Auckenthaler, T;
 Heinecke, A; Bungartz, H; Lederer, H. 
 Journal of Physics: Condensed Matter, 26 (21), (2014). 
 The ELPA library: scalable parallel eigenvalue solutions for
 electronic structure
 theory and computational science.
 https://doi.org/10.1088/0953-8984/26/21/213201

 Guidon, M; Hutter, J; VandeVondele, J. 
 JOURNAL OF CHEMICAL THEORY AND COMPUTATION, 5 (11), 3010-3021 (2009). 
 Robust Periodic Hartree-Fock Exchange for Large-Scale Simulations Using
 Gaussian Basis Sets.
 https://doi.org/10.1021/ct900494g

 Guidon, M; Schiffmann, F; Hutter, J; VandeVondele, J. 
 JOURNAL OF CHEMICAL PHYSICS, 128 (21), 214104 (2008). 
 Ab initio molecular dynamics using hybrid density functionals.
 https://doi.org/10.1063/1.2931945

 Kuhne, TD; Krack, M; Mohamed, FR; Parrinello, M. 
 PHYSICAL REVIEW LETTERS, 98 (6), 066401 (2007). 
 Efficient and accurate Car-Parrinello-like approach to
 Born-Oppenheimer molecular dynamics.
 https://doi.org/10.1103/PhysRevLett.98.066401

 Laino, T; Mohamed, F; Laio, A; Parrinello, M. 
 JOURNAL OF CHEMICAL THEORY AND COMPUTATION, 2 (5), 1370-1378 (2006). 
 An efficient linear-scaling electrostatic coupling for treating
 periodic boundary conditions in QM/MM simulations.
 https://doi.org/10.1021/ct6001169

 Laino, T; Mohamed, F; Laio, A; Parrinello, M. 
 JOURNAL OF CHEMICAL THEORY AND COMPUTATION, 1 (6), 1176-1184 (2005). 
 An efficient real space multigrid QM/MM electrostatic coupling.
 https://doi.org/10.1021/ct050123f

 Krack, M. 
 THEORETICAL CHEMISTRY ACCOUNTS, 114 (1-3), 145-152 (2005). 
 Pseudopotentials for H to Kr optimized for gradient-corrected
 exchange-correlation functionals.
 https://doi.org/10.1007/s00214-005-0655-y

 VandeVondele, J; Krack, M; Mohamed, F; Parrinello, M; Chassaing, T;
 Hutter, J. COMPUTER PHYSICS COMMUNICATIONS, 167 (2), 103-128 (2005). 
 QUICKSTEP: Fast and accurate density functional calculations using a
 mixed Gaussian and plane waves approach.
 https://doi.org/10.1016/j.cpc.2004.12.014

 Frigo, M; Johnson, SG. 
 PROCEEDINGS OF THE IEEE, 93 (2), 216-231 (2005). 
 The design and implementation of FFTW3.
 https://doi.org/10.1109/JPROC.2004.840301

 Kolafa, J. 
 JOURNAL OF COMPUTATIONAL CHEMISTRY, 25 (3), 335-342 (2004). 
 Time-reversible always stable predictor-corrector method for molecular dynamics of polarizable molecules.
 https://doi.org/10.1002/jcc.10385

 VandeVondele, J; Hutter, J. 
 JOURNAL OF CHEMICAL PHYSICS, 118 (10), 4365-4369 (2003). 
 An efficient orbital transformation method for electronic structure
 calculations.
 https://doi.org/10.1063/1.1543154

 Hartwigsen, C; Goedecker, S; Hutter, J. 
 PHYSICAL REVIEW B, 58 (7), 3641-3662 (1998). 
 Relativistic separable dual-space Gaussian pseudopotentials from H to Rn.
 https://doi.org/10.1103/PhysRevB.58.3641

 Lippert, G; Hutter, J; Parrinello, M. 
 MOLECULAR PHYSICS, 92 (3), 477-487 (1997). 
 A hybrid Gaussian and plane wave density functional scheme.
 https://doi.org/10.1080/002689797170220

 Perdew, JP; Burke, K; Ernzerhof, M. 
 PHYSICAL REVIEW LETTERS, 77 (18), 3865-3868 (1996). 
 Generalized gradient approximation made simple.
 https://doi.org/10.1103/PhysRevLett.77.3865

 Goedecker, S; Teter, M; Hutter, J. 
 PHYSICAL REVIEW B, 54 (3), 1703-1710 (1996). 
 Separable dual-space Gaussian pseudopotentials.
 https://doi.org/10.1103/PhysRevB.54.1703

 ESSMANN, U; PERERA, L; BERKOWITZ, ML; DARDEN, T; LEE, H; PEDERSEN, LG. 
 JOURNAL OF CHEMICAL PHYSICS, 103 (19), 8577-8593 (1995). 
 A SMOOTH PARTICLE MESH EWALD METHOD.
 https://doi.org/10.1063/1.470117

 BLOCHL, PE. 
 JOURNAL OF CHEMICAL PHYSICS, 103 (17), 7422-7428 (1995). 
 ELECTROSTATIC DECOUPLING OF PERIODIC IMAGES OF PLANE-WAVE-EXPANDED
 DENSITIES AND DERIVED ATOMIC POINT CHARGES.
 https://doi.org/10.1063/1.470314


 -------------------------------------------------------------------------------
 -                                                                             -
 -                                T I M I N G                                  -
 -                                                                             -
 -------------------------------------------------------------------------------
 SUBROUTINE                       CALLS  ASD         SELF TIME        TOTAL TIME
                                MAXIMUM       AVERAGE  MAXIMUM  AVERAGE  MAXIMUM
 CP2K                                 1  1.0    0.335    0.349  962.390  962.391
 qs_mol_dyn_low                       1  2.0    0.175    0.184  918.124  919.651
 velocity_verlet                      6  3.0    0.066    0.068  772.127  772.285
 qs_forces                            7  3.9    0.046    0.046  624.874  624.874
 rebuild_ks_matrix                   63  8.5    0.001    0.001  582.505  582.514
 qs_ks_build_kohn_sham_matrix        63  9.5    0.042    0.048  582.504  582.513
 hfx_ks_matrix                       63 10.5    0.004    0.004  458.108  458.127
 qs_energies                          7  4.9    0.024    0.024  330.811  331.015
 scf_env_do_scf                       7  5.9    0.000    0.001  323.469  323.469
 qs_ks_update_qs_env_forces           7  4.9    0.000    0.000  293.629  293.630
 qs_ks_update_qs_env                 63  7.8    0.001    0.001  288.884  288.892
 derivatives_four_center              7  8.9    0.023    0.265  268.285  268.286
 derivatives_four_center_main         7  9.9    0.632    1.078  267.708  267.708
 derivatives_four_center_bin        471 10.9  265.390  266.633  265.390  266.633
 scf_env_do_scf_inner_loop           56  6.8    0.004    0.006  204.394  204.405
 integrate_four_center               63 11.5    3.139    3.680  189.809  189.828
 integrate_four_center_main          63 12.5    0.235    0.327  182.045  182.614
 integrate_four_center_bin         4049 13.5  181.810  182.379  181.810  182.379
 qmmm_forces                          7  3.9    0.026    0.026  154.480  154.480
 qmmm_forces_with_gaussian            7  4.9    1.276    1.296  152.281  152.757
 qmmm_el_coupling                     7  3.9    0.000    0.001  126.864  127.017
 qmmm_elec_with_gaussian              7  4.9    1.100    1.142  126.841  126.994
 qmmm_force_with_gaussian_low         7  5.9    0.000    0.000  122.894  123.108
 init_scf_loop                        7  6.9    0.001    0.001  119.061  119.061
 pw_transfer                       1337 12.0    0.127    0.132  107.833  112.551
 fft_wrap_pw1pw2                   1113 13.1    0.017    0.018  105.810  110.524
 fft_wrap_pw1pw2_200                707 14.4    8.946    9.775  104.636  109.350
 qmmm_elec_with_gaussian_low          7  5.9    0.000    0.000  101.566  102.494
 qmmm_forces_gaussian_low_R           7  6.9    0.000    0.000  101.974  102.283
 qmmm_forces_with_gaussian_LG         7  7.9  101.974  102.283  101.974  102.283
 fft3d_ps                          1113 15.1   51.706   54.840   81.811   86.700
 qs_vxc_create                       63 10.5    0.004    0.004   85.639   85.643
 xc_vxc_pw_create                    63 11.5    1.350    1.821   85.636   85.639
 qmmm_elec_gaussian_low_R             7  6.9    0.000    0.001   75.994   76.629
 qmmm_elec_with_gaussian_LG           7  7.9   75.993   76.629   75.993   76.629
 xc_rho_set_and_dset_create          63 12.5    0.480    0.582   43.629   46.324
 qmmm_env_create                      1  2.0    7.622    7.714   42.346   42.346
 qs_rho_update_rho                   63  7.9    0.008    0.008   36.321   36.325
 calculate_rho_elec                  63  8.9    0.462    0.467   36.313   36.317
 fist_init                            1  3.0    0.006    0.008   31.511   31.511
 density_rs2pw                       63  9.9    0.004    0.004   27.078   29.335
 pw_integral_ab                    2967  7.5   26.553   27.073   27.024   27.834
 qmmm_elec_gaussian_low_G             7  6.9   25.572   25.949   25.572   25.949
 pw_restrict_s3                      21  5.9    4.488    4.658   24.589   25.067
 qmmm_forces_gaussian_low_G           7  6.9   20.919   21.036   20.919   21.036
 -------------------------------------------------------------------------------

 The number of warnings for this run is : 0
 
 -------------------------------------------------------------------------------
  **** **** ******  **  PROGRAM ENDED AT                 2021-08-31 17:33:42.980
 ***** ** ***  *** **   PROGRAM RAN ON                                 nid001969
 **    ****   ******    PROGRAM RAN BY                                     hjbio
 ***** **    ** ** **   PROGRAM PROCESS ID                                195601
  **** **  *******  **  PROGRAM STOPPED IN /lus/cls01095/work/d118/d118/hjbio/qm
                                           mm-benchmarking/archer2/CPU/cp2kMD/CB
                                           D_PHY-PBE0/6STEPS/1NODES/64CPN/4THREA
                                           DS
