 DBCSR| CPU Multiplication driver                                           BLAS
 DBCSR| Multrec recursion limit                                              512
 DBCSR| Multiplication stack size                                           1000
 DBCSR| Maximum elements for images                                    UNLIMITED
 DBCSR| Multiplicative factor virtual images                                   1
 DBCSR| Use multiplication densification                                       T
 DBCSR| Multiplication size stacks                                             3
 DBCSR| Use memory pool for CPU allocation                                     F
 DBCSR| Number of 3D layers                                               SINGLE
 DBCSR| Use MPI memory allocation                                              F
 DBCSR| Use RMA algorithm                                                      F
 DBCSR| Use Communication thread                                               T
 DBCSR| Communication thread load                                             75
 DBCSR| MPI: My node id                                                        0
 DBCSR| MPI: Number of nodes                                                  32
 DBCSR| OMP: Current number of threads                                         4
 DBCSR| OMP: Max number of threads                                             4
 DBCSR| Split modifier for TAS multiplication algorithm                  1.0E+00


  **** **** ******  **  PROGRAM STARTED AT               2021-08-31 17:43:46.524
 ***** ** ***  *** **   PROGRAM STARTED ON                             nid001757
 **    ****   ******    PROGRAM STARTED BY                                 hjbio
 ***** **    ** ** **   PROGRAM PROCESS ID                                 88184
  **** **  *******  **  PROGRAM STARTED IN /lus/cls01095/work/d118/d118/hjbio/qm
                                           mm-benchmarking/archer2/CPU/cp2kMD/CB
                                           D_PHY-PBE0/6STEPS/1NODES/128CPN/4THRE
                                           ADS

 CP2K| version string:                                          CP2K version 8.2
 CP2K| source code revision number:                                  git:310b7ab
 CP2K| cp2kflags: omp libint fftw3 libxc elpa parallel mpi3 scalapack plumed2   
 CP2K| is freely available from                            https://www.cp2k.org/
 CP2K| Program compiled at                          Thu 10 Jun 17:43:51 BST 2021
 CP2K| Program compiled on                                                 uan01
 CP2K| Program compiled for                                              ARCHER2
 CP2K| Data directory path              /work/d118/d118/hjbio/CP2K/cp2k-8.2/data
 CP2K| Input file name                                          CBD_PHY-cp2k.inp

 GLOBAL| Force Environment number                                              1
 GLOBAL| Basis set file name                                           HFX_BASIS
 GLOBAL| Potential file name                                           POTENTIAL
 GLOBAL| MM Potential file name                                     MM_POTENTIAL
 GLOBAL| Coordinate file name                                        CBD_PHY.pdb
 GLOBAL| Method name                                                        CP2K
 GLOBAL| Project name                                               CBD_PHY-PBE0
 GLOBAL| Run type                                                             MD
 GLOBAL| FFT library                                                       FFTW3
 GLOBAL| Diagonalization library                                            ELPA
 GLOBAL| Minimum number of eigenvectors for ELPA usage                        16
 GLOBAL| Orthonormality check for eigenvectors                          DISABLED
 GLOBAL| Matrix multiplication library                                    SCALAP
 GLOBAL| All-to-all communication in single precision                          F
 GLOBAL| FFTs using library dependent lengths                                  F
 GLOBAL| Grid backend                                                       AUTO
 GLOBAL| Global print level                                                  LOW
 GLOBAL| MPI I/O enabled                                                       T
 GLOBAL| Total number of message passing processes                            32
 GLOBAL| Number of threads for this process                                    4
 GLOBAL| This output is from process                                           0
 GLOBAL| CPU model name                          AMD EPYC 7742 64-Core Processor
 GLOBAL| CPUID                                                              1002

 MEMORY| system memory details [Kb]
 MEMORY|                        rank 0           min           max       average
 MEMORY| MemTotal            263568576     263568576     263568576     263568576
 MEMORY| MemFree             248288588     248288588     248288588     248288588
 MEMORY| Buffers                318464        318464        318464        318464
 MEMORY| Cached                3112308       3112308       3112308       3112308
 MEMORY| Slab                  1804868       1804868       1804868       1804868
 MEMORY| SReclaimable           240644        240644        240644        240644
 MEMORY| MemLikelyFree       251960004     251960004     251960004     251960004



                      ************* ******** ***********   
                     ************* **********************  
                     ****     **** ****      ***********   
                     ******** ****  *******     ****       
                     *******  ****   *******   ****        
                     ****     ****       ****  ****        
                     ****     **** **********  ****        
                      ****     **** ********    ****       
                     FRONTIERS IN SIMULATION TECHNOLOGY    
                                                           
                        C.J. Mundy, S. Balasubramanian,    
                     Ken Bagchi, J. Hutter, Ari Seitsonen  
                      IFW Kuo, T. Laino, J. VandeVondele   
                                 Version 1.0               

                                                           


 EWALD| Summation is done by:                                               SPME
 EWALD| Alpha parameter [       ANGSTROM^-1]                              0.4000
 EWALD| Real Space Cutoff [          ANGSTROM]                            8.4348
 EWALD| G-space max. Miller index                         80        80        80
 EWALD| Spline interpolation order                                             6

 FORCEFIELD| WARNING: A non Critical ForceField parameter is missing! CP2K GOES!
 FORCEFIELD| Non critical parameters are:Urey-Bradley,Torsions,Impropers, Opbends and 1-4
 FORCEFIELD| All missing parameters will not contribute to the potential energy!
 FORCEFIELD| Activate the print key FF_INFO to have a list of missing parameters

 CHARGE_INFO| Total Charge of the Classical System:                    -0.825808

 SPLINE_INFO| Generating 101926 splines for NONBONDED14 interactions 
              Due to 451 different atomic kinds
  ...10192  ...20384  ...30576  ...40768  ...50960  ...61152  ...71344  ...81536  ...91728  ...101920
 SPLINE_INFO| Number of unique splines computed:            301
 SPLINE_INFO| Done

 SPLINE_INFO| Generating 101926 splines for NONBONDED interactions 
              Due to 451 different atomic kinds
  ...10192  ...20384  ...30576  ...40768  ...50960  ...61152  ...71344  ...81536  ...91728  ...101920
 SPLINE_INFO| Number of unique splines computed:            301
 SPLINE_INFO| Done

 *******************************************************************************
 *******************************************************************************
 **                                                                           **
 **     #####                         ##              ##                      **
 **    ##   ##            ##          ##              ##                      **
 **   ##     ##                       ##            ######                    **
 **   ##     ##  ##   ##  ##   #####  ##  ##   ####   ##    #####    #####    **
 **   ##     ##  ##   ##  ##  ##      ## ##   ##      ##   ##   ##  ##   ##   **
 **   ##  ## ##  ##   ##  ##  ##      ####     ###    ##   ######   ######    **
 **    ##  ###   ##   ##  ##  ##      ## ##      ##   ##   ##       ##        **
 **     #######   #####   ##   #####  ##  ##  ####    ##    #####   ##        **
 **           ##                                                    ##        **
 **                                                                           **
 **                                                ... make the atoms dance   **
 **                                                                           **
 **            Copyright (C) by CP2K developers group (2000-2021)             **
 **                      J. Chem. Phys. 152, 194103 (2020)                    **
 **                                                                           **
 *******************************************************************************


 TOTAL NUMBERS AND MAXIMUM NUMBERS

  Total number of            - Atomic kinds:                                   5
                             - Atoms:                                         68
                             - Shell sets:                                   340
                             - Shells:                                       445
                             - Primitive Cartesian functions:                476
                             - Cartesian basis functions:                   1137
                             - Spherical basis functions:                   1067

  Maximum angular momentum of- Orbital basis functions:                        2
                             - Local part of the GTH pseudopotential:          2
                             - Non-local part of the GTH pseudopotential:      0


 SCF PARAMETERS         Density guess:                                   RESTART
                        --------------------------------------------------------
                        max_scf:                                              30
                        max_scf_history:                                       0
                        max_diis:                                              4
                        --------------------------------------------------------
                        eps_scf:                                        1.00E-06
                        eps_scf_history:                                0.00E+00
                        eps_diis:                                       1.00E-01
                        eps_eigval:                                     1.00E-05
                        --------------------------------------------------------
                        level_shift [a.u.]:                                 0.00
                        --------------------------------------------------------
                        Outer loop SCF in use 
                        No variables optimised in outer loop
                        eps_scf                                         1.00E-06
                        max_scf                                               20
                        No outer loop optimization
                        step_size                                       5.00E-01

 *******************************************************************************
 *******************************************************************************
 **                                                                           **
 **             #######  ##     ## ##     ## ##     ##                        **
 **            ##     ## ###   ### ###   ### ###   ###                        **
 **            ##     ## #### #### #### #### #### ####                        **
 **            ##     ## ## ### ## ## ### ## ## ### ##                        **
 **            ##  ## ## ##     ## ##     ## ##     ##                        **
 **            ##    ##  ##     ## ##     ## ##     ##  T.Laino and F.Mohamed **
 **             ##### ## ##     ## ##     ## ##     ##  2005 - 2015           **
 **                                                                           **
 **                                                     Calculation Started.. **
 *******************************************************************************
 *******************************************************************************

 MD_PAR| Molecular dynamics protocol (MD input parameters)
 MD_PAR| Ensemble type                                                       NVE
 MD_PAR| Number of time steps                                                  6
 MD_PAR| Time step [fs]                                                 1.000000
 MD_PAR| Temperature [K]                                              300.000000
 MD_PAR| Temperature tolerance [K]                                      0.000000
 MD_PAR| Print MD information every                                    1 step(s)
 MD_PAR| File type   Print frequency [steps]                          File names
 MD_PAR| Coordinates          1                           CBD_PHY-PBE0-pos-1.xyz
 MD_PAR| Velocities           1                           CBD_PHY-PBE0-vel-1.xyz
 MD_PAR| Energies             1                              CBD_PHY-PBE0-1.ener
 MD_PAR| Dump                20                           CBD_PHY-PBE0-1.restart

 ROT| Rotational analysis information
 ROT| Principal axes and moments of inertia [a.u.]
 ROT|                           1                   2                   3
 ROT| Eigenvalues      1.56283164001E+13   1.56407408488E+13   1.56663418804E+13
 ROT|      x              0.901637047331     -0.018153263569      0.432112362589
 ROT|      y              0.323714777231      0.690893927917     -0.646431994388
 ROT|      z             -0.286808957117      0.722728191915      0.628812040859
 ROT| Number of rotovibrational vectors                                        6

 DOF| Calculation of degrees of freedom
 DOF| Number of atoms                                                     167923
 DOF| Number of intramolecular constraints                                     0
 DOF| Number of intermolecular constraints                                     0
 DOF| Invariants (translations + rotations)                                    3
 DOF| Degrees of freedom                                                  503766

 DOF| Restraints information
 DOF| Number of intramolecular restraints                                      0
 DOF| Number of intermolecular restraints                                      0

 MD_VEL| Velocities initialization
 MD_VEL| Initial temperature [K]                                      300.000000
 MD_VEL| COM velocity            -0.0000000000     0.0000000000     0.0000000000

  Translating the system in order to center the QM fragment in the QM box.

 Number of electrons:                                                        180
 Number of occupied orbitals:                                                 90
 Number of molecular orbitals:                                                90

 Number of orbital functions:                                               1067
 Number of independent orbital functions:                                   1067

 Extrapolation method: initial_guess


 SCF WAVEFUNCTION OPTIMIZATION

  ----------------------------------- OT ---------------------------------------
  Minimizer      : DIIS                : direct inversion
                                         in the iterative subspace
                                         using   7 DIIS vectors
                                         safer DIIS on
  Preconditioner : FULL_ALL            : diagonalization, state selective
  Precond_solver : DEFAULT
  stepsize       :    0.15000000                  energy_gap     :    0.08000000
  eps_taylor     :   0.10000E-15                  max_taylor     :             4
  ----------------------------------- OT ---------------------------------------

  Step     Update method      Time    Convergence         Total energy    Change
  ------------------------------------------------------------------------------
  Decoupling Energy:                                               0.0370647021
  Recoupling Energy:                                              -0.0063741479
     1 OT DIIS     0.15E+00   11.6     0.00129057      -255.9257316521 -2.56E+02
  Decoupling Energy:                                               0.0370576004
  Recoupling Energy:                                              -0.0063740314
     2 OT DIIS     0.15E+00    2.0     0.00057761      -255.9419521977 -1.62E-02
  Decoupling Energy:                                               0.0369596417
  Recoupling Energy:                                              -0.0063730135
     3 OT DIIS     0.15E+00    2.0     0.00038348      -255.9451217318 -3.17E-03
  Decoupling Energy:                                               0.0369795470
  Recoupling Energy:                                              -0.0063732416
     4 OT DIIS     0.15E+00    2.0     0.00009866      -255.9458275768 -7.06E-04
  Decoupling Energy:                                               0.0369716948
  Recoupling Energy:                                              -0.0063731487
     5 OT DIIS     0.15E+00    2.0     0.00003992      -255.9458779686 -5.04E-05
  Decoupling Energy:                                               0.0369737640
  Recoupling Energy:                                              -0.0063731649
     6 OT DIIS     0.15E+00    2.0     0.00001793      -255.9458894170 -1.14E-05
  Decoupling Energy:                                               0.0369741808
  Recoupling Energy:                                              -0.0063731680
     7 OT DIIS     0.15E+00    2.0     0.00000621      -255.9458922938 -2.88E-06
  Decoupling Energy:                                               0.0369727127
  Recoupling Energy:                                              -0.0063731518
     8 OT DIIS     0.15E+00    2.0     0.00000242      -255.9458926328 -3.39E-07
  Decoupling Energy:                                               0.0369731061
  Recoupling Energy:                                              -0.0063731556
     9 OT DIIS     0.15E+00    2.0     0.00000111      -255.9458926822 -4.94E-08
  Decoupling Energy:                                               0.0369728228
  Recoupling Energy:                                              -0.0063731526
    10 OT DIIS     0.15E+00    2.0     0.00000048      -255.9458926924 -1.02E-08

  *** SCF run converged in    10 steps ***


  Electronic density on regular grids:       -179.9999999999        0.0000000001
  Core density on regular grids:              180.9999999999       -0.0000000001
  Total charge density on r-space grids:        1.0000000000
  Total charge density g-space grids:           1.0000000000

  Overlap energy of the core charge distribution:               0.00001951532734
  Self energy of the core charge distribution:               -615.71576003586028
  Core Hamiltonian energy:                                    191.01363220817834
  Hartree energy:                                             248.20663869015871
  Exchange-correlation energy:                                -61.38430761263378
  Hartree-Fock Exchange energy:                               -18.10821018492845
  QM/MM Electrostatic energy:                                   0.04209472735401

  Total energy:                                              -255.94589269240404

  outer SCF iter =    1 RMS gradient =   0.48E-06 energy =       -255.9458926924
  outer SCF loop converged in   1 iterations or   10 steps

  Decoupling Energy:                                               0.0369728028
  Recoupling Energy:                                              -0.0063731523

 ENERGY| Total FORCE_EVAL ( QMMM ) energy [a.u.]:          -1088.110859624511022

 MD_INI| MD initialization
 MD_INI| Potential energy [hartree]                          -0.108811085962E+04
 MD_INI| Total kinetic energy [hartree]                       0.239300084734E+03
 MD_INI| QM kinetic energy [hartree]                          0.106639360339E+00
 MD_INI| Total temperature [K]                                        300.000000
 MD_INI| QM temperature [K]                                           330.137318
 MD_INI| Cell volume [bohr^3]                                 1.137316355424E+07
 MD_INI| Cell volume [ang^3]                                  1.685328937712E+06
 MD_INI| Cell lengths [bohr]      2.24884969E+02  2.24884969E+02  2.24884969E+02
 MD_INI| Cell lengths [ang]       1.19004000E+02  1.19004000E+02  1.19004000E+02
 MD_INI| Cell angles [deg]        9.00000000E+01  9.00000000E+01  9.00000000E+01

  Translating the system in order to center the QM fragment in the QM box.

 Number of electrons:                                                        180
 Number of occupied orbitals:                                                 90
 Number of molecular orbitals:                                                90

 Number of orbital functions:                                               1067
 Number of independent orbital functions:                                   1067

 Extrapolation method: ASPC


 SCF WAVEFUNCTION OPTIMIZATION

  ----------------------------------- OT ---------------------------------------
  Minimizer      : DIIS                : direct inversion
                                         in the iterative subspace
                                         using   7 DIIS vectors
                                         safer DIIS on
  Preconditioner : FULL_ALL            : diagonalization, state selective
  Precond_solver : DEFAULT
  stepsize       :    0.15000000                  energy_gap     :    0.08000000
  eps_taylor     :   0.10000E-15                  max_taylor     :             4
  ----------------------------------- OT ---------------------------------------

  Step     Update method      Time    Convergence         Total energy    Change
  ------------------------------------------------------------------------------
  Decoupling Energy:                                               0.0370014667
  Recoupling Energy:                                              -0.0063734172
     1 OT DIIS     0.15E+00    8.5     0.00075899      -255.7182133807 -2.56E+02
  Decoupling Energy:                                               0.0370082386
  Recoupling Energy:                                              -0.0063735355
     2 OT DIIS     0.15E+00    2.0     0.00032685      -255.7237312598 -5.52E-03
  Decoupling Energy:                                               0.0370087411
  Recoupling Energy:                                              -0.0063735590
     3 OT DIIS     0.15E+00    2.0     0.00019068      -255.7247685906 -1.04E-03
  Decoupling Energy:                                               0.0370199883
  Recoupling Energy:                                              -0.0063736817
     4 OT DIIS     0.15E+00    2.0     0.00006054      -255.7249610277 -1.92E-04
  Decoupling Energy:                                               0.0370216763
  Recoupling Energy:                                              -0.0063737045
     5 OT DIIS     0.15E+00    2.0     0.00001954      -255.7249775924 -1.66E-05
  Decoupling Energy:                                               0.0370210005
  Recoupling Energy:                                              -0.0063736984
     6 OT DIIS     0.15E+00    2.0     0.00000817      -255.7249798507 -2.26E-06
  Decoupling Energy:                                               0.0370221929
  Recoupling Energy:                                              -0.0063737124
     7 OT DIIS     0.15E+00    2.0     0.00000308      -255.7249803128 -4.62E-07
  Decoupling Energy:                                               0.0370222382
  Recoupling Energy:                                              -0.0063737132
     8 OT DIIS     0.15E+00    2.0     0.00000136      -255.7249803901 -7.72E-08
  Decoupling Energy:                                               0.0370224659
  Recoupling Energy:                                              -0.0063737159
     9 OT DIIS     0.15E+00    2.0     0.00000058      -255.7249804058 -1.57E-08

  *** SCF run converged in     9 steps ***


  Electronic density on regular grids:       -180.0000000000        0.0000000000
  Core density on regular grids:              180.9999999999       -0.0000000001
  Total charge density on r-space grids:        0.9999999999
  Total charge density g-space grids:           0.9999999999

  Overlap energy of the core charge distribution:               0.00002422739645
  Self energy of the core charge distribution:               -615.71576003586028
  Core Hamiltonian energy:                                    191.21094981737804
  Hartree energy:                                             248.07774824449959
  Exchange-correlation energy:                                -61.42683491311911
  Hartree-Fock Exchange energy:                               -18.12283148395148
  QM/MM Electrostatic energy:                                   0.25172373787667

  Total energy:                                              -255.72498040578012

  outer SCF iter =    1 RMS gradient =   0.58E-06 energy =       -255.7249804058
  outer SCF loop converged in   1 iterations or    9 steps

  Decoupling Energy:                                               0.0370224944
  Recoupling Energy:                                              -0.0063737164

 ENERGY| Total FORCE_EVAL ( QMMM ) energy [a.u.]:          -1059.962356575431386

 MD| ***************************************************************************
 MD| Step number                                                               1
 MD| Time [fs]                                                          1.000000
 MD| Conserved quantity [hartree]                            -0.841461427194E+03
 MD| ---------------------------------------------------------------------------
 MD|                                          Instantaneous             Averages
 MD| CPU time per MD step [s]                    151.892818           151.892818
 MD| Energy drift per atom [K]           0.138202490501E+02   0.000000000000E+00
 MD| Potential energy [hartree]         -0.105996235658E+04  -0.105996235658E+04
 MD| Total kinetic energy [hartree]      0.218500929382E+03   0.218500929382E+03
 MD| QM kinetic energy [hartree]         0.121347256672E+00   0.121347256672E+00
 MD| Total temperature [K]                       273.925013           273.925013
 MD| QM temperature [K]                          375.670463           375.670463
 MD| ***************************************************************************

  Translating the system in order to center the QM fragment in the QM box.

 Number of electrons:                                                        180
 Number of occupied orbitals:                                                 90
 Number of molecular orbitals:                                                90

 Number of orbital functions:                                               1067
 Number of independent orbital functions:                                   1067

 Extrapolation method: ASPC


 SCF WAVEFUNCTION OPTIMIZATION

  ----------------------------------- OT ---------------------------------------
  Minimizer      : DIIS                : direct inversion
                                         in the iterative subspace
                                         using   7 DIIS vectors
                                         safer DIIS on
  Preconditioner : FULL_ALL            : diagonalization, state selective
  Precond_solver : DEFAULT
  stepsize       :    0.15000000                  energy_gap     :    0.08000000
  eps_taylor     :   0.10000E-15                  max_taylor     :             4
  ----------------------------------- OT ---------------------------------------

  Step     Update method      Time    Convergence         Total energy    Change
  ------------------------------------------------------------------------------
  Decoupling Energy:                                               0.0370781909
  Recoupling Energy:                                              -0.0063743357
     1 OT DIIS     0.15E+00    8.4     0.00029256      -255.3622521978 -2.55E+02
  Decoupling Energy:                                               0.0370714454
  Recoupling Energy:                                              -0.0063742686
     2 OT DIIS     0.15E+00    2.0     0.00012380      -255.3630880123 -8.36E-04
  Decoupling Energy:                                               0.0370747204
  Recoupling Energy:                                              -0.0063743003
     3 OT DIIS     0.15E+00    2.0     0.00005679      -255.3632553425 -1.67E-04
  Decoupling Energy:                                               0.0370720759
  Recoupling Energy:                                              -0.0063742776
     4 OT DIIS     0.15E+00    2.0     0.00001757      -255.3632741361 -1.88E-05
  Decoupling Energy:                                               0.0370725474
  Recoupling Energy:                                              -0.0063742816
     5 OT DIIS     0.15E+00    2.0     0.00000682      -255.3632756631 -1.53E-06
  Decoupling Energy:                                               0.0370729644
  Recoupling Energy:                                              -0.0063742866
     6 OT DIIS     0.15E+00    2.0     0.00000313      -255.3632759208 -2.58E-07
  Decoupling Energy:                                               0.0370729492
  Recoupling Energy:                                              -0.0063742866
     7 OT DIIS     0.15E+00    2.0     0.00000105      -255.3632759818 -6.10E-08
  Decoupling Energy:                                               0.0370730072
  Recoupling Energy:                                              -0.0063742873
     8 OT DIIS     0.15E+00    2.0     0.00000048      -255.3632759920 -1.02E-08

  *** SCF run converged in     8 steps ***


  Electronic density on regular grids:       -180.0000000000       -0.0000000000
  Core density on regular grids:              180.9999999999       -0.0000000001
  Total charge density on r-space grids:        0.9999999998
  Total charge density g-space grids:           0.9999999998

  Overlap energy of the core charge distribution:               0.00005088931692
  Self energy of the core charge distribution:               -615.71576003586028
  Core Hamiltonian energy:                                    191.44418736349192
  Hartree energy:                                             247.94136577246513
  Exchange-correlation energy:                                -61.47332471046596
  Hartree-Fock Exchange energy:                               -18.13880658202944
  QM/MM Electrostatic energy:                                   0.57901131112879

  Total energy:                                              -255.36327599195300

  outer SCF iter =    1 RMS gradient =   0.48E-06 energy =       -255.3632759920
  outer SCF loop converged in   1 iterations or    8 steps

  Decoupling Energy:                                               0.0370730239
  Recoupling Energy:                                              -0.0063742875

 ENERGY| Total FORCE_EVAL ( QMMM ) energy [a.u.]:          -1061.235329357451519

 MD| ***************************************************************************
 MD| Step number                                                               2
 MD| Time [fs]                                                          2.000000
 MD| Conserved quantity [hartree]                            -0.842817774909E+03
 MD| ---------------------------------------------------------------------------
 MD|                                          Instantaneous             Averages
 MD| CPU time per MD step [s]                     70.071594           110.982206
 MD| Energy drift per atom [K]           0.112696739517E+02   0.563483697584E+01
 MD| Potential energy [hartree]         -0.106123532936E+04  -0.106059884297E+04
 MD| Total kinetic energy [hartree]      0.218417554448E+03   0.218459241915E+03
 MD| QM kinetic energy [hartree]         0.111577925764E+00   0.116462591218E+00
 MD| Total temperature [K]                       273.820489           273.872751
 MD| QM temperature [K]                          345.426277           360.548370
 MD| ***************************************************************************

  Translating the system in order to center the QM fragment in the QM box.

 Number of electrons:                                                        180
 Number of occupied orbitals:                                                 90
 Number of molecular orbitals:                                                90

 Number of orbital functions:                                               1067
 Number of independent orbital functions:                                   1067

 Extrapolation method: ASPC


 SCF WAVEFUNCTION OPTIMIZATION

  ----------------------------------- OT ---------------------------------------
  Minimizer      : DIIS                : direct inversion
                                         in the iterative subspace
                                         using   7 DIIS vectors
                                         safer DIIS on
  Preconditioner : FULL_ALL            : diagonalization, state selective
  Precond_solver : DEFAULT
  stepsize       :    0.15000000                  energy_gap     :    0.08000000
  eps_taylor     :   0.10000E-15                  max_taylor     :             4
  ----------------------------------- OT ---------------------------------------

  Step     Update method      Time    Convergence         Total energy    Change
  ------------------------------------------------------------------------------
  Decoupling Energy:                                               0.0371231273
  Recoupling Energy:                                              -0.0063748339
     1 OT DIIS     0.15E+00    8.4     0.00057317      -254.8840257985 -2.55E+02
  Decoupling Energy:                                               0.0371264048
  Recoupling Energy:                                              -0.0063748790
     2 OT DIIS     0.15E+00    2.0     0.00022569      -254.8871521835 -3.13E-03
  Decoupling Energy:                                               0.0371270620
  Recoupling Energy:                                              -0.0063748843
     3 OT DIIS     0.15E+00    2.0     0.00008227      -254.8877076526 -5.55E-04
  Decoupling Energy:                                               0.0371223404
  Recoupling Energy:                                              -0.0063748374
     4 OT DIIS     0.15E+00    2.0     0.00002748      -254.8877578955 -5.02E-05
  Decoupling Energy:                                               0.0371233164
  Recoupling Energy:                                              -0.0063748478
     5 OT DIIS     0.15E+00    2.0     0.00001036      -254.8877616907 -3.80E-06
  Decoupling Energy:                                               0.0371231623
  Recoupling Energy:                                              -0.0063748451
     6 OT DIIS     0.15E+00    2.0     0.00000440      -254.8877622757 -5.85E-07
  Decoupling Energy:                                               0.0371230831
  Recoupling Energy:                                              -0.0063748446
     7 OT DIIS     0.15E+00    2.0     0.00000136      -254.8877623659 -9.02E-08
  Decoupling Energy:                                               0.0371230854
  Recoupling Energy:                                              -0.0063748447
     8 OT DIIS     0.15E+00    2.0     0.00000059      -254.8877623767 -1.08E-08

  *** SCF run converged in     8 steps ***


  Electronic density on regular grids:       -180.0000000003       -0.0000000003
  Core density on regular grids:              180.9999999999       -0.0000000001
  Total charge density on r-space grids:        0.9999999996
  Total charge density g-space grids:           0.9999999996

  Overlap energy of the core charge distribution:               0.00005124494305
  Self energy of the core charge distribution:               -615.71576003586028
  Core Hamiltonian energy:                                    191.49125542724428
  Hartree energy:                                             247.90728335357733
  Exchange-correlation energy:                                -61.48094663507192
  Hartree-Fock Exchange energy:                               -18.14140204965638
  QM/MM Electrostatic energy:                                   1.05175631808686

  Total energy:                                              -254.88776237673710

  outer SCF iter =    1 RMS gradient =   0.59E-06 energy =       -254.8877623767
  outer SCF loop converged in   1 iterations or    8 steps

  Decoupling Energy:                                               0.0371230853
  Recoupling Energy:                                              -0.0063748446

 ENERGY| Total FORCE_EVAL ( QMMM ) energy [a.u.]:          -1082.045340880995354

 MD| ***************************************************************************
 MD| Step number                                                               3
 MD| Time [fs]                                                          3.000000
 MD| Conserved quantity [hartree]                            -0.846392350816E+03
 MD| ---------------------------------------------------------------------------
 MD|                                          Instantaneous             Averages
 MD| CPU time per MD step [s]                     70.922311            97.628908
 MD| Energy drift per atom [K]           0.454778089107E+01   0.527248494758E+01
 MD| Potential energy [hartree]         -0.108204534088E+04  -0.106774767560E+04
 MD| Total kinetic energy [hartree]      0.235652990065E+03   0.224190491298E+03
 MD| QM kinetic energy [hartree]         0.117355860858E+00   0.116760347764E+00
 MD| Total temperature [K]                       295.427798           281.057767
 MD| QM temperature [K]                          363.313781           361.470174
 MD| ***************************************************************************

  Translating the system in order to center the QM fragment in the QM box.

 Number of electrons:                                                        180
 Number of occupied orbitals:                                                 90
 Number of molecular orbitals:                                                90

 Number of orbital functions:                                               1067
 Number of independent orbital functions:                                   1067

 Extrapolation method: ASPC


 SCF WAVEFUNCTION OPTIMIZATION

  ----------------------------------- OT ---------------------------------------
  Minimizer      : DIIS                : direct inversion
                                         in the iterative subspace
                                         using   7 DIIS vectors
                                         safer DIIS on
  Preconditioner : FULL_ALL            : diagonalization, state selective
  Precond_solver : DEFAULT
  stepsize       :    0.15000000                  energy_gap     :    0.08000000
  eps_taylor     :   0.10000E-15                  max_taylor     :             4
  ----------------------------------- OT ---------------------------------------

  Step     Update method      Time    Convergence         Total energy    Change
  ------------------------------------------------------------------------------
  Decoupling Energy:                                               0.0371654905
  Recoupling Energy:                                              -0.0063753283
     1 OT DIIS     0.15E+00    8.4     0.00026648      -254.3373025347 -2.54E+02
  Decoupling Energy:                                               0.0371742119
  Recoupling Energy:                                              -0.0063754094
     2 OT DIIS     0.15E+00    2.0     0.00010688      -254.3379924654 -6.90E-04
  Decoupling Energy:                                               0.0371691807
  Recoupling Energy:                                              -0.0063753576
     3 OT DIIS     0.15E+00    2.0     0.00004004      -254.3381205140 -1.28E-04
  Decoupling Energy:                                               0.0371714478
  Recoupling Energy:                                              -0.0063753810
     4 OT DIIS     0.15E+00    1.9     0.00001271      -254.3381303874 -9.87E-06
  Decoupling Energy:                                               0.0371702739
  Recoupling Energy:                                              -0.0063753695
     5 OT DIIS     0.15E+00    2.0     0.00000537      -254.3381312301 -8.43E-07
  Decoupling Energy:                                               0.0371705225
  Recoupling Energy:                                              -0.0063753713
     6 OT DIIS     0.15E+00    2.0     0.00000188      -254.3381313675 -1.37E-07
  Decoupling Energy:                                               0.0371705400
  Recoupling Energy:                                              -0.0063753718
     7 OT DIIS     0.15E+00    2.0     0.00000064      -254.3381313860 -1.85E-08

  *** SCF run converged in     7 steps ***


  Electronic density on regular grids:       -179.9999999999        0.0000000001
  Core density on regular grids:              180.9999999999       -0.0000000001
  Total charge density on r-space grids:        1.0000000000
  Total charge density g-space grids:           1.0000000000

  Overlap energy of the core charge distribution:               0.00002358467256
  Self energy of the core charge distribution:               -615.71576003586028
  Core Hamiltonian energy:                                    191.34733728962124
  Hartree energy:                                             247.97608859626280
  Exchange-correlation energy:                                -61.44937210029686
  Hartree-Fock Exchange energy:                               -18.13041944791837
  QM/MM Electrostatic energy:                                   1.63397072751124

  Total energy:                                              -254.33813138600766

  outer SCF iter =    1 RMS gradient =   0.64E-06 energy =       -254.3381313860
  outer SCF loop converged in   1 iterations or    7 steps

  Decoupling Energy:                                               0.0371704704
  Recoupling Energy:                                              -0.0063753710

 ENERGY| Total FORCE_EVAL ( QMMM ) energy [a.u.]:          -1079.714053343439446

 MD| ***************************************************************************
 MD| Step number                                                               4
 MD| Time [fs]                                                          4.000000
 MD| Conserved quantity [hartree]                            -0.842113596716E+03
 MD| ---------------------------------------------------------------------------
 MD|                                          Instantaneous             Averages
 MD| CPU time per MD step [s]                     68.170724            90.264362
 MD| Energy drift per atom [K]           0.125938619496E+02   0.710282919810E+01
 MD| Potential energy [hartree]         -0.107971405334E+04  -0.107073927004E+04
 MD| Total kinetic energy [hartree]      0.237600456628E+03   0.227542982631E+03
 MD| QM kinetic energy [hartree]         0.148328531359E+00   0.124652393663E+00
 MD| Total temperature [K]                       297.869251           285.260638
 MD| QM temperature [K]                          459.199900           385.902605
 MD| ***************************************************************************

  Translating the system in order to center the QM fragment in the QM box.

 Number of electrons:                                                        180
 Number of occupied orbitals:                                                 90
 Number of molecular orbitals:                                                90

 Number of orbital functions:                                               1067
 Number of independent orbital functions:                                   1067

 Extrapolation method: ASPC


 SCF WAVEFUNCTION OPTIMIZATION

  ----------------------------------- OT ---------------------------------------
  Minimizer      : DIIS                : direct inversion
                                         in the iterative subspace
                                         using   7 DIIS vectors
                                         safer DIIS on
  Preconditioner : FULL_ALL            : diagonalization, state selective
  Precond_solver : DEFAULT
  stepsize       :    0.15000000                  energy_gap     :    0.08000000
  eps_taylor     :   0.10000E-15                  max_taylor     :             4
  ----------------------------------- OT ---------------------------------------

  Step     Update method      Time    Convergence         Total energy    Change
  ------------------------------------------------------------------------------
  Decoupling Energy:                                               0.0372102197
  Recoupling Energy:                                              -0.0063758451
     1 OT DIIS     0.15E+00    8.4     0.00032094      -253.7449342049 -2.54E+02
  Decoupling Energy:                                               0.0372072444
  Recoupling Energy:                                              -0.0063758024
     2 OT DIIS     0.15E+00    2.0     0.00013139      -253.7458494057 -9.15E-04
  Decoupling Energy:                                               0.0372093383
  Recoupling Energy:                                              -0.0063758212
     3 OT DIIS     0.15E+00    1.9     0.00006212      -253.7460076992 -1.58E-04
  Decoupling Energy:                                               0.0372088375
  Recoupling Energy:                                              -0.0063758157
     4 OT DIIS     0.15E+00    2.0     0.00002409      -253.7460386648 -3.10E-05
  Decoupling Energy:                                               0.0372096119
  Recoupling Energy:                                              -0.0063758219
     5 OT DIIS     0.15E+00    1.9     0.00000519      -253.7460411538 -2.49E-06
  Decoupling Energy:                                               0.0372092976
  Recoupling Energy:                                              -0.0063758192
     6 OT DIIS     0.15E+00    2.0     0.00000249      -253.7460412955 -1.42E-07
  Decoupling Energy:                                               0.0372093026
  Recoupling Energy:                                              -0.0063758191
     7 OT DIIS     0.15E+00    2.0     0.00000088      -253.7460413269 -3.14E-08

  *** SCF run converged in     7 steps ***


  Electronic density on regular grids:       -180.0000000000       -0.0000000000
  Core density on regular grids:              180.9999999999       -0.0000000001
  Total charge density on r-space grids:        0.9999999998
  Total charge density g-space grids:           0.9999999998

  Overlap energy of the core charge distribution:               0.00001841792137
  Self energy of the core charge distribution:               -615.71576003586028
  Core Hamiltonian energy:                                    191.22475186021146
  Hartree energy:                                             248.04794485573410
  Exchange-correlation energy:                                -61.41799208039063
  Hartree-Fock Exchange energy:                               -18.11952333036981
  QM/MM Electrostatic energy:                                   2.23451898583566

  Total energy:                                              -253.74604132691815

  outer SCF iter =    1 RMS gradient =   0.88E-06 energy =       -253.7460413269
  outer SCF loop converged in   1 iterations or    7 steps

  Decoupling Energy:                                               0.0372093285
  Recoupling Energy:                                              -0.0063758194

 ENERGY| Total FORCE_EVAL ( QMMM ) energy [a.u.]:          -1094.307011193512608

 MD| ***************************************************************************
 MD| Step number                                                               5
 MD| Time [fs]                                                          5.000000
 MD| Conserved quantity [hartree]                            -0.848389414982E+03
 MD| ---------------------------------------------------------------------------
 MD|                                          Instantaneous             Averages
 MD| CPU time per MD step [s]                     68.970051            86.005500
 MD| Energy drift per atom [K]           0.792355881421E+00   0.584073453476E+01
 MD| Potential energy [hartree]         -0.109430701119E+04  -0.107545281827E+04
 MD| Total kinetic energy [hartree]      0.245917596211E+03   0.231217905347E+03
 MD| QM kinetic energy [hartree]         0.157566033373E+00   0.131235121605E+00
 MD| Total temperature [K]                       308.296083           289.867727
 MD| QM temperature [K]                          487.797634           406.281611
 MD| ***************************************************************************

  Translating the system in order to center the QM fragment in the QM box.

 Number of electrons:                                                        180
 Number of occupied orbitals:                                                 90
 Number of molecular orbitals:                                                90

 Number of orbital functions:                                               1067
 Number of independent orbital functions:                                   1067

 Extrapolation method: ASPC


 SCF WAVEFUNCTION OPTIMIZATION

  ----------------------------------- OT ---------------------------------------
  Minimizer      : DIIS                : direct inversion
                                         in the iterative subspace
                                         using   7 DIIS vectors
                                         safer DIIS on
  Preconditioner : FULL_ALL            : diagonalization, state selective
  Precond_solver : DEFAULT
  stepsize       :    0.15000000                  energy_gap     :    0.08000000
  eps_taylor     :   0.10000E-15                  max_taylor     :             4
  ----------------------------------- OT ---------------------------------------

  Step     Update method      Time    Convergence         Total energy    Change
  ------------------------------------------------------------------------------
  Decoupling Energy:                                               0.0372439704
  Recoupling Energy:                                              -0.0063762167
     1 OT DIIS     0.15E+00    8.4     0.00048925      -253.1925197219 -2.53E+02
  Decoupling Energy:                                               0.0372418858
  Recoupling Energy:                                              -0.0063762261
     2 OT DIIS     0.15E+00    2.0     0.00019199      -253.1946652668 -2.15E-03
  Decoupling Energy:                                               0.0372397290
  Recoupling Energy:                                              -0.0063761955
     3 OT DIIS     0.15E+00    2.0     0.00008061      -253.1950219702 -3.57E-04
  Decoupling Energy:                                               0.0372397850
  Recoupling Energy:                                              -0.0063761980
     4 OT DIIS     0.15E+00    2.0     0.00002231      -253.1950807582 -5.88E-05
  Decoupling Energy:                                               0.0372388174
  Recoupling Energy:                                              -0.0063761872
     5 OT DIIS     0.15E+00    2.0     0.00000828      -253.1950833077 -2.55E-06
  Decoupling Energy:                                               0.0372394772
  Recoupling Energy:                                              -0.0063761928
     6 OT DIIS     0.15E+00    2.0     0.00000284      -253.1950836599 -3.52E-07
  Decoupling Energy:                                               0.0372392209
  Recoupling Energy:                                              -0.0063761904
     7 OT DIIS     0.15E+00    2.0     0.00000085      -253.1950836996 -3.97E-08

  *** SCF run converged in     7 steps ***


  Electronic density on regular grids:       -180.0000000000       -0.0000000000
  Core density on regular grids:              180.9999999999       -0.0000000001
  Total charge density on r-space grids:        0.9999999999
  Total charge density g-space grids:           0.9999999999

  Overlap energy of the core charge distribution:               0.00001843300693
  Self energy of the core charge distribution:               -615.71576003586028
  Core Hamiltonian energy:                                    191.21897045330030
  Hartree energy:                                             248.05851941196491
  Exchange-correlation energy:                                -61.40903248448159
  Hartree-Fock Exchange energy:                               -18.11645512041049
  QM/MM Electrostatic energy:                                   2.76865564289733

  Total energy:                                              -253.19508369958282

  outer SCF iter =    1 RMS gradient =   0.85E-06 energy =       -253.1950836996
  outer SCF loop converged in   1 iterations or    7 steps

  Decoupling Energy:                                               0.0372392189
  Recoupling Energy:                                              -0.0063761903

 ENERGY| Total FORCE_EVAL ( QMMM ) energy [a.u.]:          -1057.339964613295479

 MD| ***************************************************************************
 MD| Step number                                                               6
 MD| Time [fs]                                                          6.000000
 MD| Conserved quantity [hartree]                            -0.842900322772E+03
 MD| ---------------------------------------------------------------------------
 MD|                                          Instantaneous             Averages
 MD| CPU time per MD step [s]                     68.220324            83.041304
 MD| Energy drift per atom [K]           0.111144449340E+02   0.671968626797E+01
 MD| Potential energy [hartree]         -0.105733996461E+04  -0.107243400933E+04
 MD| Total kinetic energy [hartree]      0.214439641841E+03   0.228421528096E+03
 MD| QM kinetic energy [hartree]         0.141133510054E+00   0.132884853013E+00
 MD| Total temperature [K]                       268.833555           286.362032
 MD| QM temperature [K]                          436.925338           411.388899
 MD| ***************************************************************************

 -------------------------------------------------------------------------------
 -                                                                             -
 -                                DBCSR STATISTICS                             -
 -                                                                             -
 -------------------------------------------------------------------------------
 COUNTER                                    TOTAL       BLAS       SMM       ACC
 flops     9 x    26 x    26              2810808     100.0%      0.0%      0.0%
 flops    22 x    26 x    26              7287280     100.0%      0.0%      0.0%
 flops     9 x    32 x    32              8515584     100.0%      0.0%      0.0%
 flops    31 x    26 x    26             11735360     100.0%      0.0%      0.0%
 flops    26 x    26 x    26             14447472     100.0%      0.0%      0.0%
 flops    22 x    32 x    32             22077440     100.0%      0.0%      0.0%
 flops    31 x    26 x    32             28887040     100.0%      0.0%      0.0%
 flops    31 x    32 x    26             28887040     100.0%      0.0%      0.0%
 flops    26 x    26 x    32             35563008     100.0%      0.0%      0.0%
 flops    26 x    32 x    26             35563008     100.0%      0.0%      0.0%
 flops    32 x    26 x    26             35563008     100.0%      0.0%      0.0%
 flops    71 x    26 x    26             53755520     100.0%      0.0%      0.0%
 flops    31 x    26 x   133             54027792     100.0%      0.0%      0.0%
 flops    31 x    26 x   146             59308704     100.0%      0.0%      0.0%
 flops    53 x    26 x    26             60191040     100.0%      0.0%      0.0%
 flops    93 x    26 x    26             70412160     100.0%      0.0%      0.0%
 flops    31 x    32 x    32             71106560     100.0%      0.0%      0.0%
 flops    31 x    26 x   124             75557664     100.0%      0.0%      0.0%
 flops    26 x    26 x   133             83074992     100.0%      0.0%      0.0%
 flops    32 x    32 x    26             87539712     100.0%      0.0%      0.0%
 flops    26 x    32 x    32             87539712     100.0%      0.0%      0.0%
 flops    32 x    26 x    32             87539712     100.0%      0.0%      0.0%
 flops    26 x    26 x   146             91195104     100.0%      0.0%      0.0%
 flops    26 x    26 x   124            116180064     100.0%      0.0%      0.0%
 flops    71 x    32 x    26            132321280     100.0%      0.0%      0.0%
 flops    71 x    26 x    32            132321280     100.0%      0.0%      0.0%
 flops    31 x    32 x   133            132991488     100.0%      0.0%      0.0%
 flops    62 x    26 x    26            140824320     100.0%      0.0%      0.0%
 flops    31 x    32 x   146            145990656     100.0%      0.0%      0.0%
 flops    53 x    32 x    26            148162560     100.0%      0.0%      0.0%
 flops    53 x    26 x    32            148162560     100.0%      0.0%      0.0%
 flops     9 x     9 x    26            165405240     100.0%      0.0%      0.0%
 flops    93 x    26 x    32            173322240     100.0%      0.0%      0.0%
 flops    93 x    32 x    26            173322240     100.0%      0.0%      0.0%
 flops    31 x    32 x   124            185988096     100.0%      0.0%      0.0%
 flops    26 x    32 x   133            204492288     100.0%      0.0%      0.0%
 flops    32 x    26 x   133            204492288     100.0%      0.0%      0.0%
 flops    32 x    32 x    32            215482368     100.0%      0.0%      0.0%
 flops    26 x    32 x   146            224480256     100.0%      0.0%      0.0%
 flops    32 x    26 x   146            224480256     100.0%      0.0%      0.0%
 flops    71 x    26 x   133            247482144     100.0%      0.0%      0.0%
 flops    71 x    26 x   146            271672128     100.0%      0.0%      0.0%
 flops    53 x    26 x   133            277110288     100.0%      0.0%      0.0%
 flops    26 x    32 x   124            285981696     100.0%      0.0%      0.0%
 flops    32 x    26 x   124            285981696     100.0%      0.0%      0.0%
 flops    53 x    26 x   146            304196256     100.0%      0.0%      0.0%
 flops    93 x    26 x   133            324166752     100.0%      0.0%      0.0%
 flops    71 x    32 x    32            325713920     100.0%      0.0%      0.0%
 flops    71 x    26 x   124            346102848     100.0%      0.0%      0.0%
 flops    62 x    32 x    26            346644480     100.0%      0.0%      0.0%
 flops    62 x    26 x    32            346644480     100.0%      0.0%      0.0%
 flops    93 x    26 x   146            355852224     100.0%      0.0%      0.0%
 flops    53 x    32 x    32            364707840     100.0%      0.0%      0.0%
 flops    53 x    26 x   124            387537696     100.0%      0.0%      0.0%
 flops     9 x     9 x    32            407151360     100.0%      0.0%      0.0%
 flops    22 x     9 x    26            415855440     100.0%      0.0%      0.0%
 flops     9 x    22 x    26            416576160     100.0%      0.0%      0.0%
 flops    93 x    32 x    32            426639360     100.0%      0.0%      0.0%
 flops    93 x    26 x   124            453345984     100.0%      0.0%      0.0%
 flops    32 x    32 x   133            503365632     100.0%      0.0%      0.0%
 flops    32 x    32 x   146            552566784     100.0%      0.0%      0.0%
 flops    71 x    32 x   133            609186816     100.0%      0.0%      0.0%
 flops    62 x    26 x   133            648333504     100.0%      0.0%      0.0%
 flops    71 x    32 x   146            668731392     100.0%      0.0%      0.0%
 flops    53 x    32 x   133            682117632     100.0%      0.0%      0.0%
 flops    32 x    32 x   124            703954944     100.0%      0.0%      0.0%
 flops    62 x    26 x   146            711704448     100.0%      0.0%      0.0%
 flops    53 x    32 x   146            748790784     100.0%      0.0%      0.0%
 flops    93 x    32 x   133            797948928     100.0%      0.0%      0.0%
 flops     9 x    26 x     9            802701900     100.0%      0.0%      0.0%
 flops    71 x    32 x   124            851945472     100.0%      0.0%      0.0%
 flops    62 x    32 x    32            853278720     100.0%      0.0%      0.0%
 flops    93 x    32 x   146            875943936     100.0%      0.0%      0.0%
 flops    62 x    26 x   124            906691968     100.0%      0.0%      0.0%
 flops    53 x    32 x   124            953938944     100.0%      0.0%      0.0%
 flops    22 x     9 x    32           1023644160     100.0%      0.0%      0.0%
 flops     9 x    22 x    32           1025418240     100.0%      0.0%      0.0%
 flops    22 x    22 x    26           1109908800     100.0%      0.0%      0.0%
 flops    93 x    32 x   124           1115928576     100.0%      0.0%      0.0%
 flops    62 x    32 x   133           1595897856     100.0%      0.0%      0.0%
 flops    62 x    32 x   146           1751887872     100.0%      0.0%      0.0%
 flops     9 x    32 x     9           1975881600     100.0%      0.0%      0.0%
 flops     9 x    26 x    22           2081079000     100.0%      0.0%      0.0%
 flops    22 x    26 x     9           2081079000     100.0%      0.0%      0.0%
 flops    62 x    32 x   124           2231857152     100.0%      0.0%      0.0%
 flops    22 x    22 x    32           2732083200     100.0%      0.0%      0.0%
 flops    22 x    32 x     9           5122656000     100.0%      0.0%      0.0%
 flops     9 x    32 x    22           5122656000     100.0%      0.0%      0.0%
 flops    22 x    26 x    22           5395390000     100.0%      0.0%      0.0%
 flops    22 x    32 x    22          13280960000     100.0%      0.0%      0.0%
 flops inhomo. stacks                 10313412480     100.0%      0.0%      0.0%
 flops total                        80.401310E+09     100.0%      0.0%      0.0%
 flops max/rank                      6.939493E+09     100.0%      0.0%      0.0%
 matmuls inhomo. stacks                     18459     100.0%      0.0%      0.0%
 matmuls total                            3038121     100.0%      0.0%      0.0%
 number of processed stacks                490065     100.0%      0.0%      0.0%
 average stack size                                     6.2       0.0       0.0
 marketing flops                    85.702451E+09
 -------------------------------------------------------------------------------
 # multiplications                           1307
 max memory usage/rank               2.876023E+09
 # max total images/rank                        2
 # max 3D layers                                1
 # MPI messages exchanged                  543712
 MPI messages size (bytes):
  total size                        24.061067E+09
  min size                           0.000000E+00
  max size                         315.360000E+03
  average size                      44.253332E+03
 MPI breakdown and total messages size (bytes):
             size <=      128              319535                        0
       128 < size <=     8192               44613                321217632
      8192 < size <=    32768               47082               1385410320
     32768 < size <=   131072               65058               3164106960
    131072 < size <=  4194304               67424              19190370584
   4194304 < size <= 16777216                   0                        0
  16777216 < size                               0                        0
 -------------------------------------------------------------------------------

 *** WARNING in dbcsr_mm.F:294 :: Using a non-square number of MPI ranks ***
 *** might lead to poor performance. Used ranks: 32 Suggested: 36 64     ***

 -------------------------------------------------------------------------------
 -                                                                             -
 -                      DBCSR MESSAGE PASSING PERFORMANCE                      -
 -                                                                             -
 -------------------------------------------------------------------------------
 ROUTINE             CALLS      AVE VOLUME [Bytes]
 MP_Bcast               91                     12.
 MP_Allreduce         7035                      8.
 MP_Alltoall          5386                  14279.
 MP_ISend            40386                  23225.
 MP_IRecv            39924                  22259.
 -------------------------------------------------------------------------------

 -------------------------------------------------------------------------------
 -                                                                             -
 -                                GRID STATISTICS                              -
 -                                                                             -
 -------------------------------------------------------------------------------
 LP    KERNEL             BACKEND                              COUNT     PERCENT
 2     collocate ortho    REF                                1126269      19.15%
 2     integrate ortho    REF                                1106014      18.80%
 1     collocate ortho    REF                                 943978      16.05%
 1     integrate ortho    REF                                 870340      14.80%
 3     integrate ortho    REF                                 570062       9.69%
 3     collocate ortho    REF                                 500530       8.51%
 0     collocate ortho    REF                                 281245       4.78%
 0     integrate ortho    REF                                 249988       4.25%
 4     integrate ortho    REF                                 121240       2.06%
 4     collocate ortho    REF                                  73823       1.26%
 0     collocate general  REF                                  15232       0.26%
 1     integrate general  REF                                  15232       0.26%
 5     integrate ortho    REF                                   8201       0.14%
 -------------------------------------------------------------------------------

 MEMORY| Estimated peak process memory [MiB]                                2799

 -------------------------------------------------------------------------------
 -                                                                             -
 -                         MESSAGE PASSING PERFORMANCE                         -
 -                                                                             -
 -------------------------------------------------------------------------------

 ROUTINE             CALLS      AVE VOLUME [Bytes]
 MP_Group                8
 MP_Bcast             6942               10565475.
 MP_Allreduce         2477                1659270.
 MP_Sync               437
 MP_Alltoall          1344               35661819.
 MP_ISendRecv        12803                 111553.
 MP_Wait             20454
 MP_comm_split          21
 MP_ISend             6475                 861828.
 MP_IRecv             6468                 861818.
 MP_Recv                49                 102432.
 -------------------------------------------------------------------------------


 -------------------------------------------------------------------------------
 -                                                                             -
 -                           R E F E R E N C E S                               -
 -                                                                             -
 -------------------------------------------------------------------------------
 
 CP2K version 8.2, the CP2K developers group (2021).
 CP2K is freely available from https://www.cp2k.org/ .

 Kuehne,Thomas D.; Iannuzzi,Marcella; Del Ben,Mauro;
 Rybkin,Vladimir V.; Seewald,Patrick; Stein,Frederick; Laino,Teodoro;
 Khaliullin,Rustam Z.; Schuett,Ole; Schiffmann,Florian; Golze,Dorothea;
 Wilhelm,Jan; Chulkov,Sergey; Bani-Hashemian,Mohammad Hossein;
 Weber,Valery; Borstnik,Urban; Taillefumier,Mathieu;
 Jakobovits,Alice Shoshana; Lazzaro,Alfio; Pabst,Hans; Mueller,Tiziano;
 Schade,Robert; Guidon,Manuel; Andermatt,Samuel; Holmberg,Nico;
 Schenter,Gregory K.; Hehn,Anna; Bussy,Augustin; Belleflamme,Fabian;
 Tabacchi,Gloria; Gloess,Andreas; Lass,Michael; Bethune,Iain;
 Mundy,Christopher J.; Plessl,Christian; Watkins,Matt;
 VandeVondele,Joost; Krack,Matthias; Hutter,Juerg. 
 The Journal of Chemical Physics, 152 (19), (2020). 
 CP2K: An electronic structure and molecular dynamics software package -
 Quickstep: Efficient and accurate electronic structure calculations.
 https://doi.org/10.1063/5.0007045

 Schuett, Ole; Messmer, Peter; Hutter, Juerg; VandeVondele, Joost. 
 Electronic Structure Calculations on Graphics Processing Units, John
 Wiley & Sons, Ltd, 173-190 (2016). 
 GPU-Accelerated Sparse Matrix-Matrix Multiplication for
 Linear Scaling Density Functional Theory.
 https://doi.org/10.1002/9781118670712.ch8

 Borstnik, U; VandeVondele, J; Weber, V; Hutter, J. 
 PARALLEL COMPUTING, 40 (5-6), 47-58 (2014). 
 Sparse matrix multiplication: The distributed block-compressed sparse
 row library.
 https://doi.org/10.1016/j.parco.2014.03.012

 Hutter, J; Iannuzzi, M; Schiffmann, F; VandeVondele, J. 
 WIREs Comput Mol Sci., 4 (1), 15-25 (2014). 
 CP2K: atomistic simulations of condensed matter systems.
 https://doi.org/10.1002/wcms.1159

 Marek, A; Blum, V; Johanni, R; Havu, V; Lang, B; Auckenthaler, T;
 Heinecke, A; Bungartz, H; Lederer, H. 
 Journal of Physics: Condensed Matter, 26 (21), (2014). 
 The ELPA library: scalable parallel eigenvalue solutions for
 electronic structure
 theory and computational science.
 https://doi.org/10.1088/0953-8984/26/21/213201

 Guidon, M; Hutter, J; VandeVondele, J. 
 JOURNAL OF CHEMICAL THEORY AND COMPUTATION, 5 (11), 3010-3021 (2009). 
 Robust Periodic Hartree-Fock Exchange for Large-Scale Simulations Using
 Gaussian Basis Sets.
 https://doi.org/10.1021/ct900494g

 Guidon, M; Schiffmann, F; Hutter, J; VandeVondele, J. 
 JOURNAL OF CHEMICAL PHYSICS, 128 (21), 214104 (2008). 
 Ab initio molecular dynamics using hybrid density functionals.
 https://doi.org/10.1063/1.2931945

 Kuhne, TD; Krack, M; Mohamed, FR; Parrinello, M. 
 PHYSICAL REVIEW LETTERS, 98 (6), 066401 (2007). 
 Efficient and accurate Car-Parrinello-like approach to
 Born-Oppenheimer molecular dynamics.
 https://doi.org/10.1103/PhysRevLett.98.066401

 Laino, T; Mohamed, F; Laio, A; Parrinello, M. 
 JOURNAL OF CHEMICAL THEORY AND COMPUTATION, 2 (5), 1370-1378 (2006). 
 An efficient linear-scaling electrostatic coupling for treating
 periodic boundary conditions in QM/MM simulations.
 https://doi.org/10.1021/ct6001169

 Laino, T; Mohamed, F; Laio, A; Parrinello, M. 
 JOURNAL OF CHEMICAL THEORY AND COMPUTATION, 1 (6), 1176-1184 (2005). 
 An efficient real space multigrid QM/MM electrostatic coupling.
 https://doi.org/10.1021/ct050123f

 Krack, M. 
 THEORETICAL CHEMISTRY ACCOUNTS, 114 (1-3), 145-152 (2005). 
 Pseudopotentials for H to Kr optimized for gradient-corrected
 exchange-correlation functionals.
 https://doi.org/10.1007/s00214-005-0655-y

 VandeVondele, J; Krack, M; Mohamed, F; Parrinello, M; Chassaing, T;
 Hutter, J. COMPUTER PHYSICS COMMUNICATIONS, 167 (2), 103-128 (2005). 
 QUICKSTEP: Fast and accurate density functional calculations using a
 mixed Gaussian and plane waves approach.
 https://doi.org/10.1016/j.cpc.2004.12.014

 Frigo, M; Johnson, SG. 
 PROCEEDINGS OF THE IEEE, 93 (2), 216-231 (2005). 
 The design and implementation of FFTW3.
 https://doi.org/10.1109/JPROC.2004.840301

 Kolafa, J. 
 JOURNAL OF COMPUTATIONAL CHEMISTRY, 25 (3), 335-342 (2004). 
 Time-reversible always stable predictor-corrector method for molecular dynamics of polarizable molecules.
 https://doi.org/10.1002/jcc.10385

 VandeVondele, J; Hutter, J. 
 JOURNAL OF CHEMICAL PHYSICS, 118 (10), 4365-4369 (2003). 
 An efficient orbital transformation method for electronic structure
 calculations.
 https://doi.org/10.1063/1.1543154

 Hartwigsen, C; Goedecker, S; Hutter, J. 
 PHYSICAL REVIEW B, 58 (7), 3641-3662 (1998). 
 Relativistic separable dual-space Gaussian pseudopotentials from H to Rn.
 https://doi.org/10.1103/PhysRevB.58.3641

 Lippert, G; Hutter, J; Parrinello, M. 
 MOLECULAR PHYSICS, 92 (3), 477-487 (1997). 
 A hybrid Gaussian and plane wave density functional scheme.
 https://doi.org/10.1080/002689797170220

 Perdew, JP; Burke, K; Ernzerhof, M. 
 PHYSICAL REVIEW LETTERS, 77 (18), 3865-3868 (1996). 
 Generalized gradient approximation made simple.
 https://doi.org/10.1103/PhysRevLett.77.3865

 Goedecker, S; Teter, M; Hutter, J. 
 PHYSICAL REVIEW B, 54 (3), 1703-1710 (1996). 
 Separable dual-space Gaussian pseudopotentials.
 https://doi.org/10.1103/PhysRevB.54.1703

 ESSMANN, U; PERERA, L; BERKOWITZ, ML; DARDEN, T; LEE, H; PEDERSEN, LG. 
 JOURNAL OF CHEMICAL PHYSICS, 103 (19), 8577-8593 (1995). 
 A SMOOTH PARTICLE MESH EWALD METHOD.
 https://doi.org/10.1063/1.470117

 BLOCHL, PE. 
 JOURNAL OF CHEMICAL PHYSICS, 103 (17), 7422-7428 (1995). 
 ELECTROSTATIC DECOUPLING OF PERIODIC IMAGES OF PLANE-WAVE-EXPANDED
 DENSITIES AND DERIVED ATOMIC POINT CHARGES.
 https://doi.org/10.1063/1.470314


 -------------------------------------------------------------------------------
 -                                                                             -
 -                                T I M I N G                                  -
 -                                                                             -
 -------------------------------------------------------------------------------
 SUBROUTINE                       CALLS  ASD         SELF TIME        TOTAL TIME
                                MAXIMUM       AVERAGE  MAXIMUM  AVERAGE  MAXIMUM
 CP2K                                 1  1.0    0.366    0.377  544.148  544.149
 qs_mol_dyn_low                       1  2.0    0.371    0.376  499.263  500.772
 velocity_verlet                      6  3.0    0.060    0.064  418.410  418.488
 qs_forces                            7  3.9    0.037    0.037  314.299  314.300
 rebuild_ks_matrix                   63  8.5    0.001    0.001  288.891  288.902
 qs_ks_build_kohn_sham_matrix        63  9.5    0.045    0.046  288.891  288.902
 hfx_ks_matrix                       63 10.5    0.005    0.005  235.416  235.436
 qs_energies                          7  4.9    0.012    0.012  165.805  165.806
 scf_env_do_scf                       7  5.9    0.000    0.002  161.358  161.358
 qs_ks_update_qs_env_forces           7  4.9    0.000    0.000  148.321  148.322
 qs_ks_update_qs_env                 63  7.8    0.001    0.001  140.578  140.587
 derivatives_four_center              7  8.9    0.021    0.289  136.111  136.112
 derivatives_four_center_main         7  9.9    0.347    0.833  135.614  135.615
 derivatives_four_center_bin        506 10.9  134.458  135.109  134.458  135.109
 scf_env_do_scf_inner_loop           56  6.8    0.004    0.007   99.639   99.650
 integrate_four_center               63 11.5    3.117    3.713   99.293   99.313
 qmmm_forces                          7  3.9    0.043    0.043   95.955   95.956
 qmmm_forces_with_gaussian            7  4.9    1.253    1.263   94.277   94.859
 integrate_four_center_main          63 12.5    0.242    0.381   92.211   92.576
 integrate_four_center_bin         4069 13.5   91.969   92.335   91.969   92.335
 qmmm_el_coupling                     7  3.9    0.002    0.008   79.842   80.292
 qmmm_elec_with_gaussian              7  4.9    1.103    1.135   79.829   80.281
 qmmm_force_with_gaussian_low         7  5.9    0.000    0.000   62.425   63.070
 init_scf_loop                        7  6.9    0.003    0.003   61.705   61.705
 qmmm_elec_with_gaussian_low          7  5.9    0.000    0.000   51.526   52.757
 qmmm_forces_gaussian_low_R           7  6.9    0.000    0.000   51.627   52.202
 qmmm_forces_with_gaussian_LG         7  7.9   51.627   52.202   51.627   52.202
 pw_transfer                       1337 12.0    0.133    0.147   41.498   43.658
 qmmm_env_create                      1  2.0    7.764    7.827   42.946   42.946
 fft_wrap_pw1pw2                   1113 13.1    0.016    0.017   40.470   42.619
 fft_wrap_pw1pw2_200                707 14.4    4.449    4.614   39.790   41.960
 qmmm_elec_gaussian_low_R             7  6.9    0.001    0.013   38.673   39.864
 qmmm_elec_with_gaussian_LG           7  7.9   38.671   39.853   38.671   39.853
 qs_vxc_create                       63 10.5    0.003    0.004   34.298   34.301
 xc_vxc_pw_create                    63 11.5    0.635    0.749   34.295   34.297
 fft3d_ps                          1113 15.1   17.731   18.293   29.903   32.103
 fist_init                            1  3.0    0.065    0.077   31.785   31.785
 pw_integral_ab                    2967  7.5   24.922   25.878   25.044   25.950
 pw_restrict_s3                      21  5.9    4.371    4.592   24.290   24.985
 qs_rho_update_rho                   63  7.9    0.016    0.016   20.783   20.791
 calculate_rho_elec                  63  8.9    0.232    0.233   20.767   20.775
 qmmm_elec_with_gaussian:spline       7  5.9    0.000    0.000   18.080   18.532
 pw_prolongate_s3                    21  6.9    3.222    3.375   18.080   18.532
 xc_rho_set_and_dset_create          63 12.5    0.315    0.332   15.989   17.364
 density_rs2pw                       63  9.9    0.003    0.004   14.620   17.045
 mp_sum_dm3                          38  5.7   16.127   16.801   16.127   16.801
 rdparm_amber_8                       2  6.5   12.655   12.784   16.231   16.360
 force_field_control                  1  4.0    0.003    0.021   16.035   16.179
 topology_control                     1  4.0    0.019    0.027   15.615   15.811
 rs_pw_transfer                     546 11.8    0.011    0.012   10.935   13.367
 qmmm_elec_gaussian_low_G             7  6.9   12.853   13.127   12.853   13.127
 qmmm_forces_gaussian_low_G           7  6.9   10.798   10.988   10.798   10.988
 -------------------------------------------------------------------------------

 The number of warnings for this run is : 1
 
 -------------------------------------------------------------------------------
  **** **** ******  **  PROGRAM ENDED AT                 2021-08-31 17:52:52.413
 ***** ** ***  *** **   PROGRAM RAN ON                                 nid001757
 **    ****   ******    PROGRAM RAN BY                                     hjbio
 ***** **    ** ** **   PROGRAM PROCESS ID                                 88184
  **** **  *******  **  PROGRAM STOPPED IN /lus/cls01095/work/d118/d118/hjbio/qm
                                           mm-benchmarking/archer2/CPU/cp2kMD/CB
                                           D_PHY-PBE0/6STEPS/1NODES/128CPN/4THRE
                                           ADS
