 DBCSR| CPU Multiplication driver                                           BLAS
 DBCSR| Multrec recursion limit                                              512
 DBCSR| Multiplication stack size                                           1000
 DBCSR| Maximum elements for images                                    UNLIMITED
 DBCSR| Multiplicative factor virtual images                                   1
 DBCSR| Use multiplication densification                                       T
 DBCSR| Multiplication size stacks                                             3
 DBCSR| Use memory pool for CPU allocation                                     F
 DBCSR| Number of 3D layers                                               SINGLE
 DBCSR| Use MPI memory allocation                                              F
 DBCSR| Use RMA algorithm                                                      F
 DBCSR| Use Communication thread                                               T
 DBCSR| Communication thread load                                             87
 DBCSR| MPI: My node id                                                        0
 DBCSR| MPI: Number of nodes                                                 256
 DBCSR| OMP: Current number of threads                                         1
 DBCSR| OMP: Max number of threads                                             1
 DBCSR| Split modifier for TAS multiplication algorithm                  1.0E+00


  **** **** ******  **  PROGRAM STARTED AT               2021-09-01 11:35:15.498
 ***** ** ***  *** **   PROGRAM STARTED ON                             nid001427
 **    ****   ******    PROGRAM STARTED BY                                 hjbio
 ***** **    ** ** **   PROGRAM PROCESS ID                                247601
  **** **  *******  **  PROGRAM STARTED IN /lus/cls01095/work/d118/d118/hjbio/qm
                                           mm-benchmarking/archer2/CPU/cp2kMD/CB
                                           D_PHY-PBE0/6STEPS/2NODES/128CPN/1THRE
                                           ADS

 CP2K| version string:                                          CP2K version 8.2
 CP2K| source code revision number:                                  git:310b7ab
 CP2K| cp2kflags: omp libint fftw3 libxc elpa parallel mpi3 scalapack plumed2   
 CP2K| is freely available from                            https://www.cp2k.org/
 CP2K| Program compiled at                          Thu 10 Jun 17:43:51 BST 2021
 CP2K| Program compiled on                                                 uan01
 CP2K| Program compiled for                                              ARCHER2
 CP2K| Data directory path              /work/d118/d118/hjbio/CP2K/cp2k-8.2/data
 CP2K| Input file name                                          CBD_PHY-cp2k.inp

 GLOBAL| Force Environment number                                              1
 GLOBAL| Basis set file name                                           HFX_BASIS
 GLOBAL| Potential file name                                           POTENTIAL
 GLOBAL| MM Potential file name                                     MM_POTENTIAL
 GLOBAL| Coordinate file name                                        CBD_PHY.pdb
 GLOBAL| Method name                                                        CP2K
 GLOBAL| Project name                                               CBD_PHY-PBE0
 GLOBAL| Run type                                                             MD
 GLOBAL| FFT library                                                       FFTW3
 GLOBAL| Diagonalization library                                            ELPA
 GLOBAL| Minimum number of eigenvectors for ELPA usage                        16
 GLOBAL| Orthonormality check for eigenvectors                          DISABLED
 GLOBAL| Matrix multiplication library                                    SCALAP
 GLOBAL| All-to-all communication in single precision                          F
 GLOBAL| FFTs using library dependent lengths                                  F
 GLOBAL| Grid backend                                                       AUTO
 GLOBAL| Global print level                                                  LOW
 GLOBAL| MPI I/O enabled                                                       T
 GLOBAL| Total number of message passing processes                           256
 GLOBAL| Number of threads for this process                                    1
 GLOBAL| This output is from process                                           0
 GLOBAL| CPU model name                          AMD EPYC 7742 64-Core Processor
 GLOBAL| CPUID                                                              1002

 MEMORY| system memory details [Kb]
 MEMORY|                        rank 0           min           max       average
 MEMORY| MemTotal            263568576     263568576     263568576     263568576
 MEMORY| MemFree             240313864     240228852     240313864     240271358
 MEMORY| Buffers                319972        319096        319972        319534
 MEMORY| Cached                1975120       1975120       2093848       2034484
 MEMORY| Slab                  1793552       1793552       1873248       1833400
 MEMORY| SReclaimable           414992        414992        506872        460932
 MEMORY| MemLikelyFree       243023948     243023948     243148668     243086308



                      ************* ******** ***********   
                     ************* **********************  
                     ****     **** ****      ***********   
                     ******** ****  *******     ****       
                     *******  ****   *******   ****        
                     ****     ****       ****  ****        
                     ****     **** **********  ****        
                      ****     **** ********    ****       
                     FRONTIERS IN SIMULATION TECHNOLOGY    
                                                           
                        C.J. Mundy, S. Balasubramanian,    
                     Ken Bagchi, J. Hutter, Ari Seitsonen  
                      IFW Kuo, T. Laino, J. VandeVondele   
                                 Version 1.0               

                                                           


 EWALD| Summation is done by:                                               SPME
 EWALD| Alpha parameter [       ANGSTROM^-1]                              0.4000
 EWALD| Real Space Cutoff [          ANGSTROM]                            8.4348
 EWALD| G-space max. Miller index                         80        80        80
 EWALD| Spline interpolation order                                             6

 FORCEFIELD| WARNING: A non Critical ForceField parameter is missing! CP2K GOES!
 FORCEFIELD| Non critical parameters are:Urey-Bradley,Torsions,Impropers, Opbends and 1-4
 FORCEFIELD| All missing parameters will not contribute to the potential energy!
 FORCEFIELD| Activate the print key FF_INFO to have a list of missing parameters

 CHARGE_INFO| Total Charge of the Classical System:                    -0.825808

 SPLINE_INFO| Generating 101926 splines for NONBONDED14 interactions 
              Due to 451 different atomic kinds
  ...10192  ...20384  ...30576  ...40768  ...50960  ...61152  ...71344  ...81536  ...91728  ...101920
 SPLINE_INFO| Number of unique splines computed:            301
 SPLINE_INFO| Done

 SPLINE_INFO| Generating 101926 splines for NONBONDED interactions 
              Due to 451 different atomic kinds
  ...10192  ...20384  ...30576  ...40768  ...50960  ...61152  ...71344  ...81536  ...91728  ...101920
 SPLINE_INFO| Number of unique splines computed:            301
 SPLINE_INFO| Done

 *******************************************************************************
 *******************************************************************************
 **                                                                           **
 **     #####                         ##              ##                      **
 **    ##   ##            ##          ##              ##                      **
 **   ##     ##                       ##            ######                    **
 **   ##     ##  ##   ##  ##   #####  ##  ##   ####   ##    #####    #####    **
 **   ##     ##  ##   ##  ##  ##      ## ##   ##      ##   ##   ##  ##   ##   **
 **   ##  ## ##  ##   ##  ##  ##      ####     ###    ##   ######   ######    **
 **    ##  ###   ##   ##  ##  ##      ## ##      ##   ##   ##       ##        **
 **     #######   #####   ##   #####  ##  ##  ####    ##    #####   ##        **
 **           ##                                                    ##        **
 **                                                                           **
 **                                                ... make the atoms dance   **
 **                                                                           **
 **            Copyright (C) by CP2K developers group (2000-2021)             **
 **                      J. Chem. Phys. 152, 194103 (2020)                    **
 **                                                                           **
 *******************************************************************************


 TOTAL NUMBERS AND MAXIMUM NUMBERS

  Total number of            - Atomic kinds:                                   5
                             - Atoms:                                         68
                             - Shell sets:                                   340
                             - Shells:                                       445
                             - Primitive Cartesian functions:                476
                             - Cartesian basis functions:                   1137
                             - Spherical basis functions:                   1067

  Maximum angular momentum of- Orbital basis functions:                        2
                             - Local part of the GTH pseudopotential:          2
                             - Non-local part of the GTH pseudopotential:      0


 SCF PARAMETERS         Density guess:                                   RESTART
                        --------------------------------------------------------
                        max_scf:                                              30
                        max_scf_history:                                       0
                        max_diis:                                              4
                        --------------------------------------------------------
                        eps_scf:                                        1.00E-06
                        eps_scf_history:                                0.00E+00
                        eps_diis:                                       1.00E-01
                        eps_eigval:                                     1.00E-05
                        --------------------------------------------------------
                        level_shift [a.u.]:                                 0.00
                        --------------------------------------------------------
                        Outer loop SCF in use 
                        No variables optimised in outer loop
                        eps_scf                                         1.00E-06
                        max_scf                                               20
                        No outer loop optimization
                        step_size                                       5.00E-01

 *******************************************************************************
 *******************************************************************************
 **                                                                           **
 **             #######  ##     ## ##     ## ##     ##                        **
 **            ##     ## ###   ### ###   ### ###   ###                        **
 **            ##     ## #### #### #### #### #### ####                        **
 **            ##     ## ## ### ## ## ### ## ## ### ##                        **
 **            ##  ## ## ##     ## ##     ## ##     ##                        **
 **            ##    ##  ##     ## ##     ## ##     ##  T.Laino and F.Mohamed **
 **             ##### ## ##     ## ##     ## ##     ##  2005 - 2015           **
 **                                                                           **
 **                                                     Calculation Started.. **
 *******************************************************************************
 *******************************************************************************

 MD_PAR| Molecular dynamics protocol (MD input parameters)
 MD_PAR| Ensemble type                                                       NVE
 MD_PAR| Number of time steps                                                  6
 MD_PAR| Time step [fs]                                                 1.000000
 MD_PAR| Temperature [K]                                              300.000000
 MD_PAR| Temperature tolerance [K]                                      0.000000
 MD_PAR| Print MD information every                                    1 step(s)
 MD_PAR| File type   Print frequency [steps]                          File names
 MD_PAR| Coordinates          1                           CBD_PHY-PBE0-pos-1.xyz
 MD_PAR| Velocities           1                           CBD_PHY-PBE0-vel-1.xyz
 MD_PAR| Energies             1                              CBD_PHY-PBE0-1.ener
 MD_PAR| Dump                20                           CBD_PHY-PBE0-1.restart

 ROT| Rotational analysis information
 ROT| Principal axes and moments of inertia [a.u.]
 ROT|                           1                   2                   3
 ROT| Eigenvalues      1.56283164001E+13   1.56407408488E+13   1.56663418804E+13
 ROT|      x              0.901637047331     -0.018153263569      0.432112362589
 ROT|      y              0.323714777231      0.690893927917     -0.646431994388
 ROT|      z             -0.286808957117      0.722728191915      0.628812040859
 ROT| Number of rotovibrational vectors                                        6

 DOF| Calculation of degrees of freedom
 DOF| Number of atoms                                                     167923
 DOF| Number of intramolecular constraints                                     0
 DOF| Number of intermolecular constraints                                     0
 DOF| Invariants (translations + rotations)                                    3
 DOF| Degrees of freedom                                                  503766

 DOF| Restraints information
 DOF| Number of intramolecular restraints                                      0
 DOF| Number of intermolecular restraints                                      0

 MD_VEL| Velocities initialization
 MD_VEL| Initial temperature [K]                                      300.000000
 MD_VEL| COM velocity            -0.0000000000     0.0000000000     0.0000000000

  Translating the system in order to center the QM fragment in the QM box.

 Number of electrons:                                                        180
 Number of occupied orbitals:                                                 90
 Number of molecular orbitals:                                                90

 Number of orbital functions:                                               1067
 Number of independent orbital functions:                                   1067

 Extrapolation method: initial_guess


 SCF WAVEFUNCTION OPTIMIZATION

  ----------------------------------- OT ---------------------------------------
  Minimizer      : DIIS                : direct inversion
                                         in the iterative subspace
                                         using   7 DIIS vectors
                                         safer DIIS on
  Preconditioner : FULL_ALL            : diagonalization, state selective
  Precond_solver : DEFAULT
  stepsize       :    0.15000000                  energy_gap     :    0.08000000
  eps_taylor     :   0.10000E-15                  max_taylor     :             4
  ----------------------------------- OT ---------------------------------------

  Step     Update method      Time    Convergence         Total energy    Change
  ------------------------------------------------------------------------------
  Decoupling Energy:                                               0.0370647021
  Recoupling Energy:                                              -0.0063741479
     1 OT DIIS     0.15E+00    7.6     0.00129057      -255.9257316521 -2.56E+02
  Decoupling Energy:                                               0.0370576004
  Recoupling Energy:                                              -0.0063740314
     2 OT DIIS     0.15E+00    1.2     0.00057761      -255.9419521977 -1.62E-02
  Decoupling Energy:                                               0.0369596417
  Recoupling Energy:                                              -0.0063730135
     3 OT DIIS     0.15E+00    1.3     0.00038348      -255.9451217318 -3.17E-03
  Decoupling Energy:                                               0.0369795470
  Recoupling Energy:                                              -0.0063732416
     4 OT DIIS     0.15E+00    1.2     0.00009866      -255.9458275768 -7.06E-04
  Decoupling Energy:                                               0.0369716948
  Recoupling Energy:                                              -0.0063731487
     5 OT DIIS     0.15E+00    1.3     0.00003992      -255.9458779686 -5.04E-05
  Decoupling Energy:                                               0.0369737640
  Recoupling Energy:                                              -0.0063731649
     6 OT DIIS     0.15E+00    1.2     0.00001793      -255.9458894170 -1.14E-05
  Decoupling Energy:                                               0.0369741808
  Recoupling Energy:                                              -0.0063731680
     7 OT DIIS     0.15E+00    1.3     0.00000621      -255.9458922938 -2.88E-06
  Decoupling Energy:                                               0.0369727127
  Recoupling Energy:                                              -0.0063731518
     8 OT DIIS     0.15E+00    1.3     0.00000242      -255.9458926328 -3.39E-07
  Decoupling Energy:                                               0.0369731061
  Recoupling Energy:                                              -0.0063731556
     9 OT DIIS     0.15E+00    1.3     0.00000111      -255.9458926822 -4.94E-08
  Decoupling Energy:                                               0.0369728228
  Recoupling Energy:                                              -0.0063731526
    10 OT DIIS     0.15E+00    1.2     0.00000048      -255.9458926924 -1.02E-08

  *** SCF run converged in    10 steps ***


  Electronic density on regular grids:       -179.9999999999        0.0000000001
  Core density on regular grids:              180.9999999999       -0.0000000001
  Total charge density on r-space grids:        1.0000000000
  Total charge density g-space grids:           1.0000000000

  Overlap energy of the core charge distribution:               0.00001951532734
  Self energy of the core charge distribution:               -615.71576003586028
  Core Hamiltonian energy:                                    191.01363220817771
  Hartree energy:                                             248.20663869015891
  Exchange-correlation energy:                                -61.38430761263349
  Hartree-Fock Exchange energy:                               -18.10821018492827
  QM/MM Electrostatic energy:                                   0.04209472735332

  Total energy:                                              -255.94589269240478

  outer SCF iter =    1 RMS gradient =   0.48E-06 energy =       -255.9458926924
  outer SCF loop converged in   1 iterations or   10 steps

  Decoupling Energy:                                               0.0369728028
  Recoupling Energy:                                              -0.0063731523

 ENERGY| Total FORCE_EVAL ( QMMM ) energy [a.u.]:          -1088.110859624478508

 MD_INI| MD initialization
 MD_INI| Potential energy [hartree]                          -0.108811085962E+04
 MD_INI| Total kinetic energy [hartree]                       0.239300084734E+03
 MD_INI| QM kinetic energy [hartree]                          0.106639360339E+00
 MD_INI| Total temperature [K]                                        300.000000
 MD_INI| QM temperature [K]                                           330.137318
 MD_INI| Cell volume [bohr^3]                                 1.137316355424E+07
 MD_INI| Cell volume [ang^3]                                  1.685328937712E+06
 MD_INI| Cell lengths [bohr]      2.24884969E+02  2.24884969E+02  2.24884969E+02
 MD_INI| Cell lengths [ang]       1.19004000E+02  1.19004000E+02  1.19004000E+02
 MD_INI| Cell angles [deg]        9.00000000E+01  9.00000000E+01  9.00000000E+01

  Translating the system in order to center the QM fragment in the QM box.

 Number of electrons:                                                        180
 Number of occupied orbitals:                                                 90
 Number of molecular orbitals:                                                90

 Number of orbital functions:                                               1067
 Number of independent orbital functions:                                   1067

 Extrapolation method: ASPC


 SCF WAVEFUNCTION OPTIMIZATION

  ----------------------------------- OT ---------------------------------------
  Minimizer      : DIIS                : direct inversion
                                         in the iterative subspace
                                         using   7 DIIS vectors
                                         safer DIIS on
  Preconditioner : FULL_ALL            : diagonalization, state selective
  Precond_solver : DEFAULT
  stepsize       :    0.15000000                  energy_gap     :    0.08000000
  eps_taylor     :   0.10000E-15                  max_taylor     :             4
  ----------------------------------- OT ---------------------------------------

  Step     Update method      Time    Convergence         Total energy    Change
  ------------------------------------------------------------------------------
  Decoupling Energy:                                               0.0370014667
  Recoupling Energy:                                              -0.0063734172
     1 OT DIIS     0.15E+00    4.5     0.00075899      -255.7182133802 -2.56E+02
  Decoupling Energy:                                               0.0370082386
  Recoupling Energy:                                              -0.0063735355
     2 OT DIIS     0.15E+00    1.2     0.00032685      -255.7237312590 -5.52E-03
  Decoupling Energy:                                               0.0370087411
  Recoupling Energy:                                              -0.0063735590
     3 OT DIIS     0.15E+00    1.2     0.00019068      -255.7247685898 -1.04E-03
  Decoupling Energy:                                               0.0370199882
  Recoupling Energy:                                              -0.0063736817
     4 OT DIIS     0.15E+00    1.2     0.00006054      -255.7249610268 -1.92E-04
  Decoupling Energy:                                               0.0370216763
  Recoupling Energy:                                              -0.0063737045
     5 OT DIIS     0.15E+00    1.2     0.00001954      -255.7249775916 -1.66E-05
  Decoupling Energy:                                               0.0370210005
  Recoupling Energy:                                              -0.0063736984
     6 OT DIIS     0.15E+00    1.2     0.00000817      -255.7249798499 -2.26E-06
  Decoupling Energy:                                               0.0370221929
  Recoupling Energy:                                              -0.0063737124
     7 OT DIIS     0.15E+00    1.2     0.00000308      -255.7249803120 -4.62E-07
  Decoupling Energy:                                               0.0370222382
  Recoupling Energy:                                              -0.0063737132
     8 OT DIIS     0.15E+00    1.2     0.00000136      -255.7249803892 -7.72E-08
  Decoupling Energy:                                               0.0370224658
  Recoupling Energy:                                              -0.0063737159
     9 OT DIIS     0.15E+00    1.2     0.00000058      -255.7249804050 -1.57E-08

  *** SCF run converged in     9 steps ***


  Electronic density on regular grids:       -180.0000000000        0.0000000000
  Core density on regular grids:              180.9999999999       -0.0000000001
  Total charge density on r-space grids:        0.9999999999
  Total charge density g-space grids:           0.9999999999

  Overlap energy of the core charge distribution:               0.00002422739645
  Self energy of the core charge distribution:               -615.71576003586028
  Core Hamiltonian energy:                                    191.21094982732075
  Hartree energy:                                             248.07774823732308
  Exchange-correlation energy:                                -61.42683491597607
  Hartree-Fock Exchange energy:                               -18.12283148395714
  QM/MM Electrostatic energy:                                   0.25172373880193

  Total energy:                                              -255.72498040495125

  outer SCF iter =    1 RMS gradient =   0.58E-06 energy =       -255.7249804050
  outer SCF loop converged in   1 iterations or    9 steps

  Decoupling Energy:                                               0.0370224944
  Recoupling Energy:                                              -0.0063737164

 ENERGY| Total FORCE_EVAL ( QMMM ) energy [a.u.]:          -1059.962356574559863

 MD| ***************************************************************************
 MD| Step number                                                               1
 MD| Time [fs]                                                          1.000000
 MD| Conserved quantity [hartree]                            -0.841461427167E+03
 MD| ---------------------------------------------------------------------------
 MD|                                          Instantaneous             Averages
 MD| CPU time per MD step [s]                    133.410525           133.410525
 MD| Energy drift per atom [K]           0.138202491001E+02   0.000000000000E+00
 MD| Potential energy [hartree]         -0.105996235657E+04  -0.105996235657E+04
 MD| Total kinetic energy [hartree]      0.218500929407E+03   0.218500929407E+03
 MD| QM kinetic energy [hartree]         0.121347282356E+00   0.121347282356E+00
 MD| Total temperature [K]                       273.925013           273.925013
 MD| QM temperature [K]                          375.670543           375.670543
 MD| ***************************************************************************

  Translating the system in order to center the QM fragment in the QM box.

 Number of electrons:                                                        180
 Number of occupied orbitals:                                                 90
 Number of molecular orbitals:                                                90

 Number of orbital functions:                                               1067
 Number of independent orbital functions:                                   1067

 Extrapolation method: ASPC


 SCF WAVEFUNCTION OPTIMIZATION

  ----------------------------------- OT ---------------------------------------
  Minimizer      : DIIS                : direct inversion
                                         in the iterative subspace
                                         using   7 DIIS vectors
                                         safer DIIS on
  Preconditioner : FULL_ALL            : diagonalization, state selective
  Precond_solver : DEFAULT
  stepsize       :    0.15000000                  energy_gap     :    0.08000000
  eps_taylor     :   0.10000E-15                  max_taylor     :             4
  ----------------------------------- OT ---------------------------------------

  Step     Update method      Time    Convergence         Total energy    Change
  ------------------------------------------------------------------------------
  Decoupling Energy:                                               0.0370781906
  Recoupling Energy:                                              -0.0063743357
     1 OT DIIS     0.15E+00    4.5     0.00029255      -255.3622522411 -2.55E+02
  Decoupling Energy:                                               0.0370714452
  Recoupling Energy:                                              -0.0063742686
     2 OT DIIS     0.15E+00    1.3     0.00012379      -255.3630880308 -8.36E-04
  Decoupling Energy:                                               0.0370747186
  Recoupling Energy:                                              -0.0063743003
     3 OT DIIS     0.15E+00    1.2     0.00005679      -255.3632553552 -1.67E-04
  Decoupling Energy:                                               0.0370720749
  Recoupling Energy:                                              -0.0063742776
     4 OT DIIS     0.15E+00    1.2     0.00001757      -255.3632741476 -1.88E-05
  Decoupling Energy:                                               0.0370725461
  Recoupling Energy:                                              -0.0063742816
     5 OT DIIS     0.15E+00    1.2     0.00000682      -255.3632756745 -1.53E-06
  Decoupling Energy:                                               0.0370729631
  Recoupling Energy:                                              -0.0063742866
     6 OT DIIS     0.15E+00    1.2     0.00000313      -255.3632759322 -2.58E-07
  Decoupling Energy:                                               0.0370729479
  Recoupling Energy:                                              -0.0063742866
     7 OT DIIS     0.15E+00    1.2     0.00000105      -255.3632759932 -6.10E-08
  Decoupling Energy:                                               0.0370730058
  Recoupling Energy:                                              -0.0063742872
     8 OT DIIS     0.15E+00    1.2     0.00000048      -255.3632760034 -1.02E-08

  *** SCF run converged in     8 steps ***


  Electronic density on regular grids:       -180.0000000000       -0.0000000000
  Core density on regular grids:              180.9999999999       -0.0000000001
  Total charge density on r-space grids:        0.9999999998
  Total charge density g-space grids:           0.9999999998

  Overlap energy of the core charge distribution:               0.00005088934466
  Self energy of the core charge distribution:               -615.71576003586028
  Core Hamiltonian energy:                                    191.44418709416129
  Hartree energy:                                             247.94136636979786
  Exchange-correlation energy:                                -61.47332489930126
  Hartree-Fock Exchange energy:                               -18.13880665682267
  QM/MM Electrostatic energy:                                   0.57901123532076

  Total energy:                                              -255.36327600335972

  outer SCF iter =    1 RMS gradient =   0.48E-06 energy =       -255.3632760034
  outer SCF loop converged in   1 iterations or    8 steps

  Decoupling Energy:                                               0.0370730225
  Recoupling Energy:                                              -0.0063742875

 ENERGY| Total FORCE_EVAL ( QMMM ) energy [a.u.]:          -1061.235329365027155

 MD| ***************************************************************************
 MD| Step number                                                               2
 MD| Time [fs]                                                          2.000000
 MD| Conserved quantity [hartree]                            -0.842817774917E+03
 MD| ---------------------------------------------------------------------------
 MD|                                          Instantaneous             Averages
 MD| CPU time per MD step [s]                     59.884402            96.647463
 MD| Energy drift per atom [K]           0.112696739364E+02   0.563483696822E+01
 MD| Potential energy [hartree]         -0.106123532937E+04  -0.106059884297E+04
 MD| Total kinetic energy [hartree]      0.218417554448E+03   0.218459241927E+03
 MD| QM kinetic energy [hartree]         0.111577923894E+00   0.116462603125E+00
 MD| Total temperature [K]                       273.820489           273.872751
 MD| QM temperature [K]                          345.426271           360.548407
 MD| ***************************************************************************

  Translating the system in order to center the QM fragment in the QM box.

 Number of electrons:                                                        180
 Number of occupied orbitals:                                                 90
 Number of molecular orbitals:                                                90

 Number of orbital functions:                                               1067
 Number of independent orbital functions:                                   1067

 Extrapolation method: ASPC


 SCF WAVEFUNCTION OPTIMIZATION

  ----------------------------------- OT ---------------------------------------
  Minimizer      : DIIS                : direct inversion
                                         in the iterative subspace
                                         using   7 DIIS vectors
                                         safer DIIS on
  Preconditioner : FULL_ALL            : diagonalization, state selective
  Precond_solver : DEFAULT
  stepsize       :    0.15000000                  energy_gap     :    0.08000000
  eps_taylor     :   0.10000E-15                  max_taylor     :             4
  ----------------------------------- OT ---------------------------------------

  Step     Update method      Time    Convergence         Total energy    Change
  ------------------------------------------------------------------------------
  Decoupling Energy:                                               0.0371231458
  Recoupling Energy:                                              -0.0063748341
     1 OT DIIS     0.15E+00    4.5     0.00057315      -254.8840258003 -2.55E+02
  Decoupling Energy:                                               0.0371263923
  Recoupling Energy:                                              -0.0063748789
     2 OT DIIS     0.15E+00    1.2     0.00022569      -254.8871518549 -3.13E-03
  Decoupling Energy:                                               0.0371270864
  Recoupling Energy:                                              -0.0063748846
     3 OT DIIS     0.15E+00    1.2     0.00008235      -254.8877072122 -5.55E-04
  Decoupling Energy:                                               0.0371223307
  Recoupling Energy:                                              -0.0063748373
     4 OT DIIS     0.15E+00    1.2     0.00002751      -254.8877575060 -5.03E-05
  Decoupling Energy:                                               0.0371233235
  Recoupling Energy:                                              -0.0063748479
     5 OT DIIS     0.15E+00    1.3     0.00001036      -254.8877613095 -3.80E-06
  Decoupling Energy:                                               0.0371231622
  Recoupling Energy:                                              -0.0063748451
     6 OT DIIS     0.15E+00    1.2     0.00000439      -254.8877618945 -5.85E-07
  Decoupling Energy:                                               0.0371230853
  Recoupling Energy:                                              -0.0063748447
     7 OT DIIS     0.15E+00    1.2     0.00000136      -254.8877619847 -9.02E-08
  Decoupling Energy:                                               0.0371230878
  Recoupling Energy:                                              -0.0063748447
     8 OT DIIS     0.15E+00    1.2     0.00000059      -254.8877619955 -1.08E-08

  *** SCF run converged in     8 steps ***


  Electronic density on regular grids:       -180.0000000003       -0.0000000003
  Core density on regular grids:              180.9999999999       -0.0000000001
  Total charge density on r-space grids:        0.9999999996
  Total charge density g-space grids:           0.9999999996

  Overlap energy of the core charge distribution:               0.00005124520024
  Self energy of the core charge distribution:               -615.71576003586028
  Core Hamiltonian energy:                                    191.49126070517838
  Hartree energy:                                             247.90727837301441
  Exchange-correlation energy:                                -61.48094649842161
  Hartree-Fock Exchange energy:                               -18.14140170041041
  QM/MM Electrostatic energy:                                   1.05175591581000

  Total energy:                                              -254.88776199548931

  outer SCF iter =    1 RMS gradient =   0.59E-06 energy =       -254.8877619955
  outer SCF loop converged in   1 iterations or    8 steps

  Decoupling Energy:                                               0.0371230874
  Recoupling Energy:                                              -0.0063748447

 ENERGY| Total FORCE_EVAL ( QMMM ) energy [a.u.]:          -1082.045340157329292

 MD| ***************************************************************************
 MD| Step number                                                               3
 MD| Time [fs]                                                          3.000000
 MD| Conserved quantity [hartree]                            -0.846392350146E+03
 MD| ---------------------------------------------------------------------------
 MD|                                          Instantaneous             Averages
 MD| CPU time per MD step [s]                     60.310148            84.535025
 MD| Energy drift per atom [K]           0.454778215177E+01   0.527248536274E+01
 MD| Potential energy [hartree]         -0.108204534016E+04  -0.106774767537E+04
 MD| Total kinetic energy [hartree]      0.235652990012E+03   0.224190491289E+03
 MD| QM kinetic energy [hartree]         0.117355809670E+00   0.116760338640E+00
 MD| Total temperature [K]                       295.427798           281.057767
 MD| QM temperature [K]                          363.313622           361.470145
 MD| ***************************************************************************

  Translating the system in order to center the QM fragment in the QM box.

 Number of electrons:                                                        180
 Number of occupied orbitals:                                                 90
 Number of molecular orbitals:                                                90

 Number of orbital functions:                                               1067
 Number of independent orbital functions:                                   1067

 Extrapolation method: ASPC


 SCF WAVEFUNCTION OPTIMIZATION

  ----------------------------------- OT ---------------------------------------
  Minimizer      : DIIS                : direct inversion
                                         in the iterative subspace
                                         using   7 DIIS vectors
                                         safer DIIS on
  Preconditioner : FULL_ALL            : diagonalization, state selective
  Precond_solver : DEFAULT
  stepsize       :    0.15000000                  energy_gap     :    0.08000000
  eps_taylor     :   0.10000E-15                  max_taylor     :             4
  ----------------------------------- OT ---------------------------------------

  Step     Update method      Time    Convergence         Total energy    Change
  ------------------------------------------------------------------------------
  Decoupling Energy:                                               0.0371654578
  Recoupling Energy:                                              -0.0063753280
     1 OT DIIS     0.15E+00    4.5     0.00026636      -254.3373035145 -2.54E+02
  Decoupling Energy:                                               0.0371742210
  Recoupling Energy:                                              -0.0063754096
     2 OT DIIS     0.15E+00    1.3     0.00010680      -254.3379928785 -6.89E-04
  Decoupling Energy:                                               0.0371691412
  Recoupling Energy:                                              -0.0063753571
     3 OT DIIS     0.15E+00    1.2     0.00003981      -254.3381208815 -1.28E-04
  Decoupling Energy:                                               0.0371714748
  Recoupling Energy:                                              -0.0063753813
     4 OT DIIS     0.15E+00    1.2     0.00001266      -254.3381306774 -9.80E-06
  Decoupling Energy:                                               0.0371702598
  Recoupling Energy:                                              -0.0063753693
     5 OT DIIS     0.15E+00    1.2     0.00000535      -254.3381315146 -8.37E-07
  Decoupling Energy:                                               0.0371705263
  Recoupling Energy:                                              -0.0063753714
     6 OT DIIS     0.15E+00    1.2     0.00000188      -254.3381316508 -1.36E-07
  Decoupling Energy:                                               0.0371705415
  Recoupling Energy:                                              -0.0063753718
     7 OT DIIS     0.15E+00    1.2     0.00000064      -254.3381316693 -1.85E-08

  *** SCF run converged in     7 steps ***


  Electronic density on regular grids:       -179.9999999999        0.0000000001
  Core density on regular grids:              180.9999999999       -0.0000000001
  Total charge density on r-space grids:        1.0000000000
  Total charge density g-space grids:           1.0000000000

  Overlap energy of the core charge distribution:               0.00002358453884
  Self energy of the core charge distribution:               -615.71576003586028
  Core Hamiltonian energy:                                    191.34733115907864
  Hartree energy:                                             247.97609013690314
  Exchange-correlation energy:                                -61.44936876749767
  Hartree-Fock Exchange energy:                               -18.13041827387108
  QM/MM Electrostatic energy:                                   1.63397052736055

  Total energy:                                              -254.33813166934780

  outer SCF iter =    1 RMS gradient =   0.64E-06 energy =       -254.3381316693
  outer SCF loop converged in   1 iterations or    7 steps

  Decoupling Energy:                                               0.0371704700
  Recoupling Energy:                                              -0.0063753710

 ENERGY| Total FORCE_EVAL ( QMMM ) energy [a.u.]:          -1079.714053137006431

 MD| ***************************************************************************
 MD| Step number                                                               4
 MD| Time [fs]                                                          4.000000
 MD| Conserved quantity [hartree]                            -0.842113596139E+03
 MD| ---------------------------------------------------------------------------
 MD|                                          Instantaneous             Averages
 MD| CPU time per MD step [s]                     58.815685            78.105190
 MD| Energy drift per atom [K]           0.125938630332E+02   0.710282978035E+01
 MD| Potential energy [hartree]         -0.107971405314E+04  -0.107073926981E+04
 MD| Total kinetic energy [hartree]      0.237600456998E+03   0.227542982716E+03
 MD| QM kinetic energy [hartree]         0.148328900922E+00   0.124652479210E+00
 MD| Total temperature [K]                       297.869251           285.260638
 MD| QM temperature [K]                          459.201044           385.902870
 MD| ***************************************************************************

  Translating the system in order to center the QM fragment in the QM box.

 Number of electrons:                                                        180
 Number of occupied orbitals:                                                 90
 Number of molecular orbitals:                                                90

 Number of orbital functions:                                               1067
 Number of independent orbital functions:                                   1067

 Extrapolation method: ASPC


 SCF WAVEFUNCTION OPTIMIZATION

  ----------------------------------- OT ---------------------------------------
  Minimizer      : DIIS                : direct inversion
                                         in the iterative subspace
                                         using   7 DIIS vectors
                                         safer DIIS on
  Preconditioner : FULL_ALL            : diagonalization, state selective
  Precond_solver : DEFAULT
  stepsize       :    0.15000000                  energy_gap     :    0.08000000
  eps_taylor     :   0.10000E-15                  max_taylor     :             4
  ----------------------------------- OT ---------------------------------------

  Step     Update method      Time    Convergence         Total energy    Change
  ------------------------------------------------------------------------------
  Decoupling Energy:                                               0.0372102105
  Recoupling Energy:                                              -0.0063758448
     1 OT DIIS     0.15E+00    4.5     0.00032144      -253.7449307402 -2.54E+02
  Decoupling Energy:                                               0.0372073447
  Recoupling Energy:                                              -0.0063758035
     2 OT DIIS     0.15E+00    1.2     0.00013163      -253.7458485460 -9.18E-04
  Decoupling Energy:                                               0.0372092978
  Recoupling Energy:                                              -0.0063758207
     3 OT DIIS     0.15E+00    1.3     0.00006235      -253.7460072151 -1.59E-04
  Decoupling Energy:                                               0.0372088575
  Recoupling Energy:                                              -0.0063758159
     4 OT DIIS     0.15E+00    1.2     0.00002426      -253.7460383284 -3.11E-05
  Decoupling Energy:                                               0.0372096125
  Recoupling Energy:                                              -0.0063758219
     5 OT DIIS     0.15E+00    1.3     0.00000520      -253.7460408508 -2.52E-06
  Decoupling Energy:                                               0.0372092960
  Recoupling Energy:                                              -0.0063758192
     6 OT DIIS     0.15E+00    1.3     0.00000251      -253.7460409928 -1.42E-07
  Decoupling Energy:                                               0.0372093039
  Recoupling Energy:                                              -0.0063758191
     7 OT DIIS     0.15E+00    1.3     0.00000088      -253.7460410245 -3.18E-08

  *** SCF run converged in     7 steps ***


  Electronic density on regular grids:       -180.0000000000       -0.0000000000
  Core density on regular grids:              180.9999999999       -0.0000000001
  Total charge density on r-space grids:        0.9999999998
  Total charge density g-space grids:           0.9999999998

  Overlap energy of the core charge distribution:               0.00001841779331
  Self energy of the core charge distribution:               -615.71576003586028
  Core Hamiltonian energy:                                    191.22473257249300
  Hartree energy:                                             248.04795798234375
  Exchange-correlation energy:                                -61.41798723771646
  Hartree-Fock Exchange energy:                               -18.11952158703331
  QM/MM Electrostatic energy:                                   2.23451886343600

  Total energy:                                              -253.74604102454404

  outer SCF iter =    1 RMS gradient =   0.88E-06 energy =       -253.7460410245
  outer SCF loop converged in   1 iterations or    7 steps

  Decoupling Energy:                                               0.0372093297
  Recoupling Energy:                                              -0.0063758194

 ENERGY| Total FORCE_EVAL ( QMMM ) energy [a.u.]:          -1094.307010533599168

 MD| ***************************************************************************
 MD| Step number                                                               5
 MD| Time [fs]                                                          5.000000
 MD| Conserved quantity [hartree]                            -0.848389415145E+03
 MD| ---------------------------------------------------------------------------
 MD|                                          Instantaneous             Averages
 MD| CPU time per MD step [s]                     59.128163            74.309784
 MD| Energy drift per atom [K]           0.792355575813E+00   0.584073493945E+01
 MD| Potential energy [hartree]         -0.109430701053E+04  -0.107545281795E+04
 MD| Total kinetic energy [hartree]      0.245917595389E+03   0.231217905251E+03
 MD| QM kinetic energy [hartree]         0.157565197087E+00   0.131235022786E+00
 MD| Total temperature [K]                       308.296082           289.867727
 MD| QM temperature [K]                          487.795045           406.281305
 MD| ***************************************************************************

  Translating the system in order to center the QM fragment in the QM box.

 Number of electrons:                                                        180
 Number of occupied orbitals:                                                 90
 Number of molecular orbitals:                                                90

 Number of orbital functions:                                               1067
 Number of independent orbital functions:                                   1067

 Extrapolation method: ASPC


 SCF WAVEFUNCTION OPTIMIZATION

  ----------------------------------- OT ---------------------------------------
  Minimizer      : DIIS                : direct inversion
                                         in the iterative subspace
                                         using   7 DIIS vectors
                                         safer DIIS on
  Preconditioner : FULL_ALL            : diagonalization, state selective
  Precond_solver : DEFAULT
  stepsize       :    0.15000000                  energy_gap     :    0.08000000
  eps_taylor     :   0.10000E-15                  max_taylor     :             4
  ----------------------------------- OT ---------------------------------------

  Step     Update method      Time    Convergence         Total energy    Change
  ------------------------------------------------------------------------------
  Decoupling Energy:                                               0.0372439406
  Recoupling Energy:                                              -0.0063762169
     1 OT DIIS     0.15E+00    4.5     0.00048931      -253.1925190615 -2.53E+02
  Decoupling Energy:                                               0.0372417747
  Recoupling Energy:                                              -0.0063762247
     2 OT DIIS     0.15E+00    1.3     0.00019205      -253.1946648935 -2.15E-03
  Decoupling Energy:                                               0.0372397828
  Recoupling Energy:                                              -0.0063761963
     3 OT DIIS     0.15E+00    1.3     0.00008075      -253.1950216255 -3.57E-04
  Decoupling Energy:                                               0.0372397487
  Recoupling Energy:                                              -0.0063761974
     4 OT DIIS     0.15E+00    1.2     0.00002255      -253.1950805031 -5.89E-05
  Decoupling Energy:                                               0.0372388253
  Recoupling Energy:                                              -0.0063761873
     5 OT DIIS     0.15E+00    1.2     0.00000836      -253.1950830877 -2.58E-06
  Decoupling Energy:                                               0.0372394727
  Recoupling Energy:                                              -0.0063761927
     6 OT DIIS     0.15E+00    1.3     0.00000287      -253.1950834455 -3.58E-07
  Decoupling Energy:                                               0.0372392192
  Recoupling Energy:                                              -0.0063761904
     7 OT DIIS     0.15E+00    1.2     0.00000086      -253.1950834860 -4.05E-08

  *** SCF run converged in     7 steps ***


  Electronic density on regular grids:       -180.0000000000       -0.0000000000
  Core density on regular grids:              180.9999999999       -0.0000000001
  Total charge density on r-space grids:        0.9999999999
  Total charge density g-space grids:           0.9999999999

  Overlap energy of the core charge distribution:               0.00001843278233
  Self energy of the core charge distribution:               -615.71576003586028
  Core Hamiltonian energy:                                    191.21894841634241
  Hartree energy:                                             248.05853305381538
  Exchange-correlation energy:                                -61.40902618742493
  Hartree-Fock Exchange energy:                               -18.11645279420379
  QM/MM Electrostatic energy:                                   2.76865562852751

  Total energy:                                              -253.19508348602136

  outer SCF iter =    1 RMS gradient =   0.86E-06 energy =       -253.1950834860
  outer SCF loop converged in   1 iterations or    7 steps

  Decoupling Energy:                                               0.0372392169
  Recoupling Energy:                                              -0.0063761902

 ENERGY| Total FORCE_EVAL ( QMMM ) energy [a.u.]:          -1057.339964058035775

 MD| ***************************************************************************
 MD| Step number                                                               6
 MD| Time [fs]                                                          6.000000
 MD| Conserved quantity [hartree]                            -0.842900324057E+03
 MD| ---------------------------------------------------------------------------
 MD|                                          Instantaneous             Averages
 MD| CPU time per MD step [s]                     58.928496            71.746236
 MD| Energy drift per atom [K]           0.111144425187E+02   0.671968620266E+01
 MD| Potential energy [hartree]         -0.105733996406E+04  -0.107243400897E+04
 MD| Total kinetic energy [hartree]      0.214439640002E+03   0.228421527709E+03
 MD| QM kinetic energy [hartree]         0.141131637851E+00   0.132884458630E+00
 MD| Total temperature [K]                       268.833553           286.362031
 MD| QM temperature [K]                          436.919542           411.387678
 MD| ***************************************************************************

 -------------------------------------------------------------------------------
 -                                                                             -
 -                                DBCSR STATISTICS                             -
 -                                                                             -
 -------------------------------------------------------------------------------
 COUNTER                                    TOTAL       BLAS       SMM       ACC
 flops     9 x    26 x    26              2810808     100.0%      0.0%      0.0%
 flops    22 x    26 x    26              7287280     100.0%      0.0%      0.0%
 flops     9 x    32 x    32              8515584     100.0%      0.0%      0.0%
 flops    26 x    26 x    26             14447472     100.0%      0.0%      0.0%
 flops    22 x    32 x    32             22077440     100.0%      0.0%      0.0%
 flops    26 x    26 x    32             35563008     100.0%      0.0%      0.0%
 flops    26 x    32 x    26             35563008     100.0%      0.0%      0.0%
 flops    32 x    26 x    26             35563008     100.0%      0.0%      0.0%
 flops    26 x    26 x    66             61837776     100.0%      0.0%      0.0%
 flops    66 x    26 x    26             74954880     100.0%      0.0%      0.0%
 flops    32 x    32 x    26             87539712     100.0%      0.0%      0.0%
 flops    26 x    32 x    32             87539712     100.0%      0.0%      0.0%
 flops    32 x    26 x    32             87539712     100.0%      0.0%      0.0%
 flops    26 x    26 x    62            116180064     100.0%      0.0%      0.0%
 flops    62 x    26 x    26            140824320     100.0%      0.0%      0.0%
 flops    26 x    32 x    66            152216064     100.0%      0.0%      0.0%
 flops    32 x    26 x    66            152216064     100.0%      0.0%      0.0%
 flops    26 x    26 x    71            155219064     100.0%      0.0%      0.0%
 flops     9 x     9 x    26            165405240     100.0%      0.0%      0.0%
 flops    66 x    26 x    32            184504320     100.0%      0.0%      0.0%
 flops    66 x    32 x    26            184504320     100.0%      0.0%      0.0%
 flops    71 x    26 x    26            188144320     100.0%      0.0%      0.0%
 flops    32 x    32 x    32            215482368     100.0%      0.0%      0.0%
 flops    66 x    26 x    66            256864608     100.0%      0.0%      0.0%
 flops    26 x    32 x    62            285981696     100.0%      0.0%      0.0%
 flops    32 x    26 x    62            285981696     100.0%      0.0%      0.0%
 flops    62 x    26 x    32            346644480     100.0%      0.0%      0.0%
 flops    62 x    32 x    26            346644480     100.0%      0.0%      0.0%
 flops    32 x    32 x    66            374685696     100.0%      0.0%      0.0%
 flops    26 x    32 x    71            382077696     100.0%      0.0%      0.0%
 flops    32 x    26 x    71            382077696     100.0%      0.0%      0.0%
 flops     9 x     9 x    32            407151360     100.0%      0.0%      0.0%
 flops    22 x     9 x    26            415855440     100.0%      0.0%      0.0%
 flops     9 x    22 x    26            416576160     100.0%      0.0%      0.0%
 flops    66 x    32 x    32            454164480     100.0%      0.0%      0.0%
 flops    71 x    32 x    26            463124480     100.0%      0.0%      0.0%
 flops    71 x    26 x    32            463124480     100.0%      0.0%      0.0%
 flops    66 x    26 x    62            482594112     100.0%      0.0%      0.0%
 flops    62 x    26 x    66            482594112     100.0%      0.0%      0.0%
 flops    66 x    32 x    66            632282112     100.0%      0.0%      0.0%
 flops    66 x    26 x    71            644756112     100.0%      0.0%      0.0%
 flops    71 x    26 x    66            644756112     100.0%      0.0%      0.0%
 flops    32 x    32 x    62            703954944     100.0%      0.0%      0.0%
 flops     9 x    26 x     9            802701900     100.0%      0.0%      0.0%
 flops    62 x    32 x    32            853278720     100.0%      0.0%      0.0%
 flops    62 x    26 x    62            906691968     100.0%      0.0%      0.0%
 flops    32 x    32 x    71            940498944     100.0%      0.0%      0.0%
 flops    22 x     9 x    32           1023644160     100.0%      0.0%      0.0%
 flops     9 x    22 x    32           1025418240     100.0%      0.0%      0.0%
 flops    22 x    22 x    26           1109908800     100.0%      0.0%      0.0%
 flops    71 x    32 x    32           1139998720     100.0%      0.0%      0.0%
 flops    66 x    32 x    62           1187923968     100.0%      0.0%      0.0%
 flops    62 x    32 x    66           1187923968     100.0%      0.0%      0.0%
 flops    71 x    26 x    62           1211359968     100.0%      0.0%      0.0%
 flops    62 x    26 x    71           1211359968     100.0%      0.0%      0.0%
 flops    71 x    32 x    66           1587091968     100.0%      0.0%      0.0%
 flops    66 x    32 x    71           1587091968     100.0%      0.0%      0.0%
 flops    71 x    26 x    71           1618402968     100.0%      0.0%      0.0%
 flops     9 x    32 x     9           1975881600     100.0%      0.0%      0.0%
 flops    22 x    26 x     9           2081079000     100.0%      0.0%      0.0%
 flops     9 x    26 x    22           2081079000     100.0%      0.0%      0.0%
 flops    62 x    32 x    62           2231857152     100.0%      0.0%      0.0%
 flops    22 x    22 x    32           2732083200     100.0%      0.0%      0.0%
 flops    71 x    32 x    62           2981809152     100.0%      0.0%      0.0%
 flops    62 x    32 x    71           2981809152     100.0%      0.0%      0.0%
 flops    71 x    32 x    71           3983761152     100.0%      0.0%      0.0%
 flops    22 x    32 x     9           5122656000     100.0%      0.0%      0.0%
 flops     9 x    32 x    22           5122656000     100.0%      0.0%      0.0%
 flops    22 x    26 x    22           5395390000     100.0%      0.0%      0.0%
 flops    22 x    32 x    22          13280960000     100.0%      0.0%      0.0%
 flops inhomo. stacks                           0       0.0%      0.0%      0.0%
 flops total                        78.452145E+09     100.0%      0.0%      0.0%
 flops max/rank                      2.194838E+09     100.0%      0.0%      0.0%
 matmuls inhomo. stacks                         0       0.0%      0.0%      0.0%
 matmuls total                            3103137     100.0%      0.0%      0.0%
 number of processed stacks                790533     100.0%      0.0%      0.0%
 average stack size                                     3.9       0.0       0.0
 marketing flops                    85.702451E+09
 -------------------------------------------------------------------------------
 # multiplications                           1307
 max memory usage/rank               1.496588E+09
 # max total images/rank                        1
 # max 3D layers                                1
 # MPI messages exchanged                10037760
 MPI messages size (bytes):
  total size                        55.908909E+09
  min size                           0.000000E+00
  max size                          40.328000E+03
  average size                       5.569859E+03
 MPI breakdown and total messages size (bytes):
             size <=      128             7876035                        0
       128 < size <=     8192              149085               1073432160
      8192 < size <=    32768             1181880              24032423520
     32768 < size <=   131072              830760              30802883160
    131072 < size <=  4194304                   0                        0
   4194304 < size <= 16777216                   0                        0
  16777216 < size                               0                        0
 -------------------------------------------------------------------------------
 -                                                                             -
 -                      DBCSR MESSAGE PASSING PERFORMANCE                      -
 -                                                                             -
 -------------------------------------------------------------------------------
 ROUTINE             CALLS      AVE VOLUME [Bytes]
 MP_Bcast               71                     12.
 MP_Allreduce         6995                      8.
 MP_Alltoall          5386                  88672.
 MP_ISend            83620                   5028.
 MP_IRecv            83620                   4804.
 -------------------------------------------------------------------------------

 -------------------------------------------------------------------------------
 -                                                                             -
 -                                GRID STATISTICS                              -
 -                                                                             -
 -------------------------------------------------------------------------------
 LP    KERNEL             BACKEND                              COUNT     PERCENT
 2     collocate ortho    REF                                1126269      18.48%
 2     integrate ortho    REF                                1106014      18.15%
 1     collocate ortho    REF                                 943978      15.49%
 1     integrate ortho    REF                                 870340      14.28%
 3     integrate ortho    REF                                 570062       9.35%
 3     collocate ortho    REF                                 500530       8.21%
 0     collocate ortho    REF                                 281245       4.61%
 0     integrate ortho    REF                                 249988       4.10%
 0     collocate general  REF                                 121856       2.00%
 1     integrate general  REF                                 121856       2.00%
 4     integrate ortho    REF                                 121240       1.99%
 4     collocate ortho    REF                                  73823       1.21%
 5     integrate ortho    REF                                   8201       0.13%
 -------------------------------------------------------------------------------

 MEMORY| Estimated peak process memory [MiB]                                1508

 -------------------------------------------------------------------------------
 -                                                                             -
 -                         MESSAGE PASSING PERFORMANCE                         -
 -                                                                             -
 -------------------------------------------------------------------------------

 ROUTINE             CALLS      AVE VOLUME [Bytes]
 MP_Group                8
 MP_Bcast             6942               10565501.
 MP_Allreduce         2477                1659350.
 MP_Sync               437
 MP_Alltoall          1344                4199989.
 MP_ISendRecv       105315                  30014.
 MP_Wait            124950
 MP_comm_split          21
 MP_ISend            17927                 105005.
 MP_IRecv            18200                 103127.
 MP_Recv                98                  51216.
 -------------------------------------------------------------------------------


 -------------------------------------------------------------------------------
 -                                                                             -
 -                           R E F E R E N C E S                               -
 -                                                                             -
 -------------------------------------------------------------------------------
 
 CP2K version 8.2, the CP2K developers group (2021).
 CP2K is freely available from https://www.cp2k.org/ .

 Kuehne,Thomas D.; Iannuzzi,Marcella; Del Ben,Mauro;
 Rybkin,Vladimir V.; Seewald,Patrick; Stein,Frederick; Laino,Teodoro;
 Khaliullin,Rustam Z.; Schuett,Ole; Schiffmann,Florian; Golze,Dorothea;
 Wilhelm,Jan; Chulkov,Sergey; Bani-Hashemian,Mohammad Hossein;
 Weber,Valery; Borstnik,Urban; Taillefumier,Mathieu;
 Jakobovits,Alice Shoshana; Lazzaro,Alfio; Pabst,Hans; Mueller,Tiziano;
 Schade,Robert; Guidon,Manuel; Andermatt,Samuel; Holmberg,Nico;
 Schenter,Gregory K.; Hehn,Anna; Bussy,Augustin; Belleflamme,Fabian;
 Tabacchi,Gloria; Gloess,Andreas; Lass,Michael; Bethune,Iain;
 Mundy,Christopher J.; Plessl,Christian; Watkins,Matt;
 VandeVondele,Joost; Krack,Matthias; Hutter,Juerg. 
 The Journal of Chemical Physics, 152 (19), (2020). 
 CP2K: An electronic structure and molecular dynamics software package -
 Quickstep: Efficient and accurate electronic structure calculations.
 https://doi.org/10.1063/5.0007045

 Schuett, Ole; Messmer, Peter; Hutter, Juerg; VandeVondele, Joost. 
 Electronic Structure Calculations on Graphics Processing Units, John
 Wiley & Sons, Ltd, 173-190 (2016). 
 GPU-Accelerated Sparse Matrix-Matrix Multiplication for
 Linear Scaling Density Functional Theory.
 https://doi.org/10.1002/9781118670712.ch8

 Borstnik, U; VandeVondele, J; Weber, V; Hutter, J. 
 PARALLEL COMPUTING, 40 (5-6), 47-58 (2014). 
 Sparse matrix multiplication: The distributed block-compressed sparse
 row library.
 https://doi.org/10.1016/j.parco.2014.03.012

 Hutter, J; Iannuzzi, M; Schiffmann, F; VandeVondele, J. 
 WIREs Comput Mol Sci., 4 (1), 15-25 (2014). 
 CP2K: atomistic simulations of condensed matter systems.
 https://doi.org/10.1002/wcms.1159

 Marek, A; Blum, V; Johanni, R; Havu, V; Lang, B; Auckenthaler, T;
 Heinecke, A; Bungartz, H; Lederer, H. 
 Journal of Physics: Condensed Matter, 26 (21), (2014). 
 The ELPA library: scalable parallel eigenvalue solutions for
 electronic structure
 theory and computational science.
 https://doi.org/10.1088/0953-8984/26/21/213201

 Guidon, M; Hutter, J; VandeVondele, J. 
 JOURNAL OF CHEMICAL THEORY AND COMPUTATION, 5 (11), 3010-3021 (2009). 
 Robust Periodic Hartree-Fock Exchange for Large-Scale Simulations Using
 Gaussian Basis Sets.
 https://doi.org/10.1021/ct900494g

 Guidon, M; Schiffmann, F; Hutter, J; VandeVondele, J. 
 JOURNAL OF CHEMICAL PHYSICS, 128 (21), 214104 (2008). 
 Ab initio molecular dynamics using hybrid density functionals.
 https://doi.org/10.1063/1.2931945

 Kuhne, TD; Krack, M; Mohamed, FR; Parrinello, M. 
 PHYSICAL REVIEW LETTERS, 98 (6), 066401 (2007). 
 Efficient and accurate Car-Parrinello-like approach to
 Born-Oppenheimer molecular dynamics.
 https://doi.org/10.1103/PhysRevLett.98.066401

 Laino, T; Mohamed, F; Laio, A; Parrinello, M. 
 JOURNAL OF CHEMICAL THEORY AND COMPUTATION, 2 (5), 1370-1378 (2006). 
 An efficient linear-scaling electrostatic coupling for treating
 periodic boundary conditions in QM/MM simulations.
 https://doi.org/10.1021/ct6001169

 Laino, T; Mohamed, F; Laio, A; Parrinello, M. 
 JOURNAL OF CHEMICAL THEORY AND COMPUTATION, 1 (6), 1176-1184 (2005). 
 An efficient real space multigrid QM/MM electrostatic coupling.
 https://doi.org/10.1021/ct050123f

 Krack, M. 
 THEORETICAL CHEMISTRY ACCOUNTS, 114 (1-3), 145-152 (2005). 
 Pseudopotentials for H to Kr optimized for gradient-corrected
 exchange-correlation functionals.
 https://doi.org/10.1007/s00214-005-0655-y

 VandeVondele, J; Krack, M; Mohamed, F; Parrinello, M; Chassaing, T;
 Hutter, J. COMPUTER PHYSICS COMMUNICATIONS, 167 (2), 103-128 (2005). 
 QUICKSTEP: Fast and accurate density functional calculations using a
 mixed Gaussian and plane waves approach.
 https://doi.org/10.1016/j.cpc.2004.12.014

 Frigo, M; Johnson, SG. 
 PROCEEDINGS OF THE IEEE, 93 (2), 216-231 (2005). 
 The design and implementation of FFTW3.
 https://doi.org/10.1109/JPROC.2004.840301

 Kolafa, J. 
 JOURNAL OF COMPUTATIONAL CHEMISTRY, 25 (3), 335-342 (2004). 
 Time-reversible always stable predictor-corrector method for molecular dynamics of polarizable molecules.
 https://doi.org/10.1002/jcc.10385

 VandeVondele, J; Hutter, J. 
 JOURNAL OF CHEMICAL PHYSICS, 118 (10), 4365-4369 (2003). 
 An efficient orbital transformation method for electronic structure
 calculations.
 https://doi.org/10.1063/1.1543154

 Hartwigsen, C; Goedecker, S; Hutter, J. 
 PHYSICAL REVIEW B, 58 (7), 3641-3662 (1998). 
 Relativistic separable dual-space Gaussian pseudopotentials from H to Rn.
 https://doi.org/10.1103/PhysRevB.58.3641

 Lippert, G; Hutter, J; Parrinello, M. 
 MOLECULAR PHYSICS, 92 (3), 477-487 (1997). 
 A hybrid Gaussian and plane wave density functional scheme.
 https://doi.org/10.1080/002689797170220

 Perdew, JP; Burke, K; Ernzerhof, M. 
 PHYSICAL REVIEW LETTERS, 77 (18), 3865-3868 (1996). 
 Generalized gradient approximation made simple.
 https://doi.org/10.1103/PhysRevLett.77.3865

 Goedecker, S; Teter, M; Hutter, J. 
 PHYSICAL REVIEW B, 54 (3), 1703-1710 (1996). 
 Separable dual-space Gaussian pseudopotentials.
 https://doi.org/10.1103/PhysRevB.54.1703

 ESSMANN, U; PERERA, L; BERKOWITZ, ML; DARDEN, T; LEE, H; PEDERSEN, LG. 
 JOURNAL OF CHEMICAL PHYSICS, 103 (19), 8577-8593 (1995). 
 A SMOOTH PARTICLE MESH EWALD METHOD.
 https://doi.org/10.1063/1.470117

 BLOCHL, PE. 
 JOURNAL OF CHEMICAL PHYSICS, 103 (17), 7422-7428 (1995). 
 ELECTROSTATIC DECOUPLING OF PERIODIC IMAGES OF PLANE-WAVE-EXPANDED
 DENSITIES AND DERIVED ATOMIC POINT CHARGES.
 https://doi.org/10.1063/1.470314


 -------------------------------------------------------------------------------
 -                                                                             -
 -                                T I M I N G                                  -
 -                                                                             -
 -------------------------------------------------------------------------------
 SUBROUTINE                       CALLS  ASD         SELF TIME        TOTAL TIME
                                MAXIMUM       AVERAGE  MAXIMUM  AVERAGE  MAXIMUM
 CP2K                                 1  1.0    0.455    0.484  492.407  492.408
 qs_mol_dyn_low                       1  2.0    0.026    0.029  431.645  433.466
 velocity_verlet                      6  3.0    0.130    0.134  358.521  358.535
 qs_forces                            7  3.9    0.002    0.002  181.753  181.756
 rebuild_ks_matrix                   63  8.5    0.001    0.001  161.933  161.948
 qs_ks_build_kohn_sham_matrix        63  9.5    0.012    0.015  161.932  161.947
 qmmm_forces                          7  3.9    0.129    0.137  134.991  135.000
 qmmm_forces_with_gaussian            7  4.9    5.098    5.158  133.313  134.364
 hfx_ks_matrix                       63 10.5    0.004    0.005  123.333  123.335
 qmmm_el_coupling                     7  3.9    0.000    0.000  103.404  103.980
 qmmm_elec_with_gaussian              7  4.9    5.448    5.567  103.398  103.975
 qs_energies                          7  4.9    0.001    0.002  102.150  102.159
 scf_env_do_scf                       7  5.9    0.000    0.001   96.871   96.872
 pw_restrict_s3                      21  5.9   20.994   21.607   82.034   82.902
 qs_ks_update_qs_env                 63  7.8    0.001    0.001   82.448   82.462
 qs_ks_update_qs_env_forces           7  4.9    0.000    0.000   79.493   79.494
 derivatives_four_center              7  8.9    0.029    0.337   71.687   71.688
 derivatives_four_center_main         7  9.9    0.002    0.002   71.131   71.132
 derivatives_four_center_bin        518 10.9   66.881   71.129   66.881   71.129
 pw_integral_ab                    2967  7.5   63.752   64.621   64.678   65.626
 scf_env_do_scf_inner_loop           56  6.8    0.002    0.004   62.404   62.419
 qmmm_elec_with_gaussian:spline       7  5.9    0.000    0.000   60.732   61.315
 pw_prolongate_s3                    21  6.9   15.751   16.244   60.732   61.315
 qmmm_env_create                      1  2.0    9.690    9.753   58.468   58.472
 integrate_four_center               63 11.5    0.329    0.952   51.637   51.638
 integrate_four_center_main          63 12.5    0.013    0.015   45.918   46.671
 integrate_four_center_bin         4158 13.5   45.905   46.657   45.905   46.657
 fist_init                            1  3.0    0.000    0.000   42.507   42.508
 init_scf_loop                        7  6.9    0.001    0.001   34.444   34.446
 pw_transfer                       1337 12.0    0.146    0.182   30.286   31.927
 fft_wrap_pw1pw2                   1113 13.1    0.013    0.018   29.834   31.487
 qmmm_force_with_gaussian_low         7  5.9    0.000    0.000   30.680   31.234
 mp_sum_dm3                          38  5.7   30.726   31.088   30.726   31.088
 fft3d_ps                          1113 15.1    6.026    8.371   26.455   27.939
 fft_wrap_pw1pw2_200                707 14.4    1.471    1.926   26.192   27.932
 qmmm_forces_gaussian_low_R           7  6.9    0.000    0.000   25.671   26.080
 qmmm_forces_with_gaussian_LG         7  7.9   25.671   26.080   25.671   26.080
 force_field_control                  1  4.0    0.000    0.009   24.055   24.455
 mp_alltoall_z22v                  1113 17.1   19.071   21.697   19.071   21.697
 pw_zero                           2442  7.3   19.967   21.094   19.967   21.094
 qmmm_elec_with_gaussian_low          7  5.9    0.000    0.000   20.443   21.038
 qs_vxc_create                       63 10.5    0.002    0.003   20.659   20.671
 xc_vxc_pw_create                    63 11.5    0.182    0.301   20.656   20.668
 pw_axpy                           1914  8.3   19.156   20.011   19.156   20.011
 rdparm_amber_8                       2  6.5   14.792   15.158   19.509   19.736
 qmmm_elec_gaussian_low_R             7  6.9    0.000    0.000   18.166   18.772
 qmmm_elec_with_gaussian_LG           7  7.9   18.166   18.772   18.166   18.772
 topology_control                     1  4.0    0.000    0.000   18.133   18.291
 force_field_pack                     1  5.0    0.013    0.048   15.603   15.906
 yz_to_x                            518 15.7    0.406    0.546   14.061   15.552
 rs_pw_transfer                     546 11.8    0.011    0.014   13.144   14.537
 sum_up_and_integrate                63 10.5    0.056    0.099   13.296   13.323
 integrate_v_rspace                  63 11.5    0.003    0.006   13.239   13.272
 qs_rho_update_rho                   63  7.9    0.001    0.001   12.897   12.912
 calculate_rho_elec                  63  8.9    0.032    0.052   12.896   12.911
 force_field_pack_splines             2  6.0    0.017    0.031   11.789   12.082
 get_nonbond_storage                  2  7.0    0.329    0.394   11.532   11.833
 connectivity_control                 2  4.0    0.001    0.009   11.520   11.557
 set_potparm_index                  602  8.0    0.449    0.459   11.203   11.544
 xc_rho_set_and_dset_create          63 12.5    0.108    0.249    8.105   11.216
 read_connectivity_amber              1  6.0    0.000    0.000   11.195   11.211
 init_genpot                        604  9.0   10.783   11.107   10.783   11.107
 density_rs2pw                       63  9.9    0.004    0.005    9.772   11.039
 -------------------------------------------------------------------------------

 The number of warnings for this run is : 0
 
 -------------------------------------------------------------------------------
  **** **** ******  **  PROGRAM ENDED AT                 2021-09-01 11:43:29.751
 ***** ** ***  *** **   PROGRAM RAN ON                                 nid001427
 **    ****   ******    PROGRAM RAN BY                                     hjbio
 ***** **    ** ** **   PROGRAM PROCESS ID                                247601
  **** **  *******  **  PROGRAM STOPPED IN /lus/cls01095/work/d118/d118/hjbio/qm
                                           mm-benchmarking/archer2/CPU/cp2kMD/CB
                                           D_PHY-PBE0/6STEPS/2NODES/128CPN/1THRE
                                           ADS
