 DBCSR| CPU Multiplication driver                                           BLAS
 DBCSR| Multrec recursion limit                                              512
 DBCSR| Multiplication stack size                                           1000
 DBCSR| Maximum elements for images                                    UNLIMITED
 DBCSR| Multiplicative factor virtual images                                   1
 DBCSR| Use multiplication densification                                       T
 DBCSR| Multiplication size stacks                                             3
 DBCSR| Use memory pool for CPU allocation                                     F
 DBCSR| Number of 3D layers                                               SINGLE
 DBCSR| Use MPI memory allocation                                              F
 DBCSR| Use RMA algorithm                                                      F
 DBCSR| Use Communication thread                                               T
 DBCSR| Communication thread load                                             75
 DBCSR| MPI: My node id                                                        0
 DBCSR| MPI: Number of nodes                                                  64
 DBCSR| OMP: Current number of threads                                         4
 DBCSR| OMP: Max number of threads                                             4
 DBCSR| Split modifier for TAS multiplication algorithm                  1.0E+00


  **** **** ******  **  PROGRAM STARTED AT               2021-08-31 15:36:00.959
 ***** ** ***  *** **   PROGRAM STARTED ON                             nid001736
 **    ****   ******    PROGRAM STARTED BY                                 hjbio
 ***** **    ** ** **   PROGRAM PROCESS ID                                209266
  **** **  *******  **  PROGRAM STARTED IN /lus/cls01095/work/d118/d118/hjbio/qm
                                           mm-benchmarking/archer2/CPU/cp2kMD/CB
                                           D_PHY-PBE0/1STEPS/2NODES/128CPN/4THRE
                                           ADS

 CP2K| version string:                                          CP2K version 8.2
 CP2K| source code revision number:                                  git:310b7ab
 CP2K| cp2kflags: omp libint fftw3 libxc elpa parallel mpi3 scalapack plumed2   
 CP2K| is freely available from                            https://www.cp2k.org/
 CP2K| Program compiled at                          Thu 10 Jun 17:43:51 BST 2021
 CP2K| Program compiled on                                                 uan01
 CP2K| Program compiled for                                              ARCHER2
 CP2K| Data directory path              /work/d118/d118/hjbio/CP2K/cp2k-8.2/data
 CP2K| Input file name                                          CBD_PHY-cp2k.inp

 GLOBAL| Force Environment number                                              1
 GLOBAL| Basis set file name                                           HFX_BASIS
 GLOBAL| Potential file name                                           POTENTIAL
 GLOBAL| MM Potential file name                                     MM_POTENTIAL
 GLOBAL| Coordinate file name                                        CBD_PHY.pdb
 GLOBAL| Method name                                                        CP2K
 GLOBAL| Project name                                               CBD_PHY-PBE0
 GLOBAL| Run type                                                             MD
 GLOBAL| FFT library                                                       FFTW3
 GLOBAL| Diagonalization library                                            ELPA
 GLOBAL| Minimum number of eigenvectors for ELPA usage                        16
 GLOBAL| Orthonormality check for eigenvectors                          DISABLED
 GLOBAL| Matrix multiplication library                                    SCALAP
 GLOBAL| All-to-all communication in single precision                          F
 GLOBAL| FFTs using library dependent lengths                                  F
 GLOBAL| Grid backend                                                       AUTO
 GLOBAL| Global print level                                                  LOW
 GLOBAL| MPI I/O enabled                                                       T
 GLOBAL| Total number of message passing processes                            64
 GLOBAL| Number of threads for this process                                    4
 GLOBAL| This output is from process                                           0
 GLOBAL| CPU model name                          AMD EPYC 7742 64-Core Processor
 GLOBAL| CPUID                                                              1002

 MEMORY| system memory details [Kb]
 MEMORY|                        rank 0           min           max       average
 MEMORY| MemTotal            263568576     263568576     263568576     263568576
 MEMORY| MemFree             247495408     247495408     247933924     247714666
 MEMORY| Buffers                148948        148948        204464        176706
 MEMORY| Cached                4077652       3685228       4077652       3881440
 MEMORY| Slab                  1851812       1808168       1851812       1829990
 MEMORY| SReclaimable           165600        165600        178932        172266
 MEMORY| MemLikelyFree       251887608     251887608     252002548     251945078



                      ************* ******** ***********   
                     ************* **********************  
                     ****     **** ****      ***********   
                     ******** ****  *******     ****       
                     *******  ****   *******   ****        
                     ****     ****       ****  ****        
                     ****     **** **********  ****        
                      ****     **** ********    ****       
                     FRONTIERS IN SIMULATION TECHNOLOGY    
                                                           
                        C.J. Mundy, S. Balasubramanian,    
                     Ken Bagchi, J. Hutter, Ari Seitsonen  
                      IFW Kuo, T. Laino, J. VandeVondele   
                                 Version 1.0               

                                                           


 EWALD| Summation is done by:                                               SPME
 EWALD| Alpha parameter [       ANGSTROM^-1]                              0.4000
 EWALD| Real Space Cutoff [          ANGSTROM]                            8.4348
 EWALD| G-space max. Miller index                         80        80        80
 EWALD| Spline interpolation order                                             6

 FORCEFIELD| WARNING: A non Critical ForceField parameter is missing! CP2K GOES!
 FORCEFIELD| Non critical parameters are:Urey-Bradley,Torsions,Impropers, Opbends and 1-4
 FORCEFIELD| All missing parameters will not contribute to the potential energy!
 FORCEFIELD| Activate the print key FF_INFO to have a list of missing parameters

 CHARGE_INFO| Total Charge of the Classical System:                    -0.825808

 SPLINE_INFO| Generating 101926 splines for NONBONDED14 interactions 
              Due to 451 different atomic kinds
  ...10192  ...20384  ...30576  ...40768  ...50960  ...61152  ...71344  ...81536  ...91728  ...101920
 SPLINE_INFO| Number of unique splines computed:            301
 SPLINE_INFO| Done

 SPLINE_INFO| Generating 101926 splines for NONBONDED interactions 
              Due to 451 different atomic kinds
  ...10192  ...20384  ...30576  ...40768  ...50960  ...61152  ...71344  ...81536  ...91728  ...101920
 SPLINE_INFO| Number of unique splines computed:            301
 SPLINE_INFO| Done

 *******************************************************************************
 *******************************************************************************
 **                                                                           **
 **     #####                         ##              ##                      **
 **    ##   ##            ##          ##              ##                      **
 **   ##     ##                       ##            ######                    **
 **   ##     ##  ##   ##  ##   #####  ##  ##   ####   ##    #####    #####    **
 **   ##     ##  ##   ##  ##  ##      ## ##   ##      ##   ##   ##  ##   ##   **
 **   ##  ## ##  ##   ##  ##  ##      ####     ###    ##   ######   ######    **
 **    ##  ###   ##   ##  ##  ##      ## ##      ##   ##   ##       ##        **
 **     #######   #####   ##   #####  ##  ##  ####    ##    #####   ##        **
 **           ##                                                    ##        **
 **                                                                           **
 **                                                ... make the atoms dance   **
 **                                                                           **
 **            Copyright (C) by CP2K developers group (2000-2021)             **
 **                      J. Chem. Phys. 152, 194103 (2020)                    **
 **                                                                           **
 *******************************************************************************


 TOTAL NUMBERS AND MAXIMUM NUMBERS

  Total number of            - Atomic kinds:                                   5
                             - Atoms:                                         68
                             - Shell sets:                                   340
                             - Shells:                                       445
                             - Primitive Cartesian functions:                476
                             - Cartesian basis functions:                   1137
                             - Spherical basis functions:                   1067

  Maximum angular momentum of- Orbital basis functions:                        2
                             - Local part of the GTH pseudopotential:          2
                             - Non-local part of the GTH pseudopotential:      0


 SCF PARAMETERS         Density guess:                                   RESTART
                        --------------------------------------------------------
                        max_scf:                                              30
                        max_scf_history:                                       0
                        max_diis:                                              4
                        --------------------------------------------------------
                        eps_scf:                                        1.00E-06
                        eps_scf_history:                                0.00E+00
                        eps_diis:                                       1.00E-01
                        eps_eigval:                                     1.00E-05
                        --------------------------------------------------------
                        level_shift [a.u.]:                                 0.00
                        --------------------------------------------------------
                        Outer loop SCF in use 
                        No variables optimised in outer loop
                        eps_scf                                         1.00E-06
                        max_scf                                               20
                        No outer loop optimization
                        step_size                                       5.00E-01

 *******************************************************************************
 *******************************************************************************
 **                                                                           **
 **             #######  ##     ## ##     ## ##     ##                        **
 **            ##     ## ###   ### ###   ### ###   ###                        **
 **            ##     ## #### #### #### #### #### ####                        **
 **            ##     ## ## ### ## ## ### ## ## ### ##                        **
 **            ##  ## ## ##     ## ##     ## ##     ##                        **
 **            ##    ##  ##     ## ##     ## ##     ##  T.Laino and F.Mohamed **
 **             ##### ## ##     ## ##     ## ##     ##  2005 - 2015           **
 **                                                                           **
 **                                                     Calculation Started.. **
 *******************************************************************************
 *******************************************************************************

 MD_PAR| Molecular dynamics protocol (MD input parameters)
 MD_PAR| Ensemble type                                                       NVE
 MD_PAR| Number of time steps                                                  1
 MD_PAR| Time step [fs]                                                 1.000000
 MD_PAR| Temperature [K]                                              300.000000
 MD_PAR| Temperature tolerance [K]                                      0.000000
 MD_PAR| Print MD information every                                    1 step(s)
 MD_PAR| File type   Print frequency [steps]                          File names
 MD_PAR| Coordinates          1                           CBD_PHY-PBE0-pos-1.xyz
 MD_PAR| Velocities           1                           CBD_PHY-PBE0-vel-1.xyz
 MD_PAR| Energies             1                              CBD_PHY-PBE0-1.ener
 MD_PAR| Dump                20                           CBD_PHY-PBE0-1.restart

 ROT| Rotational analysis information
 ROT| Principal axes and moments of inertia [a.u.]
 ROT|                           1                   2                   3
 ROT| Eigenvalues      1.56283164001E+13   1.56407408488E+13   1.56663418804E+13
 ROT|      x              0.901637047331     -0.018153263569      0.432112362589
 ROT|      y              0.323714777231      0.690893927917     -0.646431994388
 ROT|      z             -0.286808957117      0.722728191915      0.628812040859
 ROT| Number of rotovibrational vectors                                        6

 DOF| Calculation of degrees of freedom
 DOF| Number of atoms                                                     167923
 DOF| Number of intramolecular constraints                                     0
 DOF| Number of intermolecular constraints                                     0
 DOF| Invariants (translations + rotations)                                    3
 DOF| Degrees of freedom                                                  503766

 DOF| Restraints information
 DOF| Number of intramolecular restraints                                      0
 DOF| Number of intermolecular restraints                                      0

 MD_VEL| Velocities initialization
 MD_VEL| Initial temperature [K]                                      300.000000
 MD_VEL| COM velocity            -0.0000000000     0.0000000000     0.0000000000

  Translating the system in order to center the QM fragment in the QM box.

 Number of electrons:                                                        180
 Number of occupied orbitals:                                                 90
 Number of molecular orbitals:                                                90

 Number of orbital functions:                                               1067
 Number of independent orbital functions:                                   1067

 Extrapolation method: initial_guess


 SCF WAVEFUNCTION OPTIMIZATION

  ----------------------------------- OT ---------------------------------------
  Minimizer      : DIIS                : direct inversion
                                         in the iterative subspace
                                         using   7 DIIS vectors
                                         safer DIIS on
  Preconditioner : FULL_ALL            : diagonalization, state selective
  Precond_solver : DEFAULT
  stepsize       :    0.15000000                  energy_gap     :    0.08000000
  eps_taylor     :   0.10000E-15                  max_taylor     :             4
  ----------------------------------- OT ---------------------------------------

  Step     Update method      Time    Convergence         Total energy    Change
  ------------------------------------------------------------------------------
  Decoupling Energy:                                               0.0370647021
  Recoupling Energy:                                              -0.0063741479
     1 OT DIIS     0.15E+00    7.2     0.00129057      -255.9257316521 -2.56E+02
  Decoupling Energy:                                               0.0370576004
  Recoupling Energy:                                              -0.0063740314
     2 OT DIIS     0.15E+00    1.0     0.00057761      -255.9419521977 -1.62E-02
  Decoupling Energy:                                               0.0369596417
  Recoupling Energy:                                              -0.0063730135
     3 OT DIIS     0.15E+00    1.0     0.00038348      -255.9451217318 -3.17E-03
  Decoupling Energy:                                               0.0369795470
  Recoupling Energy:                                              -0.0063732416
     4 OT DIIS     0.15E+00    1.0     0.00009866      -255.9458275768 -7.06E-04
  Decoupling Energy:                                               0.0369716948
  Recoupling Energy:                                              -0.0063731487
     5 OT DIIS     0.15E+00    1.0     0.00003992      -255.9458779686 -5.04E-05
  Decoupling Energy:                                               0.0369737640
  Recoupling Energy:                                              -0.0063731649
     6 OT DIIS     0.15E+00    1.0     0.00001793      -255.9458894170 -1.14E-05
  Decoupling Energy:                                               0.0369741808
  Recoupling Energy:                                              -0.0063731680
     7 OT DIIS     0.15E+00    1.0     0.00000621      -255.9458922938 -2.88E-06
  Decoupling Energy:                                               0.0369727127
  Recoupling Energy:                                              -0.0063731518
     8 OT DIIS     0.15E+00    1.0     0.00000242      -255.9458926328 -3.39E-07
  Decoupling Energy:                                               0.0369731061
  Recoupling Energy:                                              -0.0063731556
     9 OT DIIS     0.15E+00    1.0     0.00000111      -255.9458926822 -4.94E-08
  Decoupling Energy:                                               0.0369728228
  Recoupling Energy:                                              -0.0063731526
    10 OT DIIS     0.15E+00    1.0     0.00000048      -255.9458926924 -1.02E-08

  *** SCF run converged in    10 steps ***


  Electronic density on regular grids:       -179.9999999999        0.0000000001
  Core density on regular grids:              180.9999999999       -0.0000000001
  Total charge density on r-space grids:        1.0000000000
  Total charge density g-space grids:           1.0000000000

  Overlap energy of the core charge distribution:               0.00001951532734
  Self energy of the core charge distribution:               -615.71576003586028
  Core Hamiltonian energy:                                    191.01363220817831
  Hartree energy:                                             248.20663869016025
  Exchange-correlation energy:                                -61.38430761263379
  Hartree-Fock Exchange energy:                               -18.10821018492833
  QM/MM Electrostatic energy:                                   0.04209472735323

  Total energy:                                              -255.94589269240325

  outer SCF iter =    1 RMS gradient =   0.48E-06 energy =       -255.9458926924
  outer SCF loop converged in   1 iterations or   10 steps

  Decoupling Energy:                                               0.0369728028
  Recoupling Energy:                                              -0.0063731523

 ENERGY| Total FORCE_EVAL ( QMMM ) energy [a.u.]:          -1088.110859624496243

 MD_INI| MD initialization
 MD_INI| Potential energy [hartree]                          -0.108811085962E+04
 MD_INI| Total kinetic energy [hartree]                       0.239300084734E+03
 MD_INI| QM kinetic energy [hartree]                          0.106639360339E+00
 MD_INI| Total temperature [K]                                        300.000000
 MD_INI| QM temperature [K]                                           330.137318
 MD_INI| Cell volume [bohr^3]                                 1.137316355424E+07
 MD_INI| Cell volume [ang^3]                                  1.685328937712E+06
 MD_INI| Cell lengths [bohr]      2.24884969E+02  2.24884969E+02  2.24884969E+02
 MD_INI| Cell lengths [ang]       1.19004000E+02  1.19004000E+02  1.19004000E+02
 MD_INI| Cell angles [deg]        9.00000000E+01  9.00000000E+01  9.00000000E+01

  Translating the system in order to center the QM fragment in the QM box.

 Number of electrons:                                                        180
 Number of occupied orbitals:                                                 90
 Number of molecular orbitals:                                                90

 Number of orbital functions:                                               1067
 Number of independent orbital functions:                                   1067

 Extrapolation method: ASPC


 SCF WAVEFUNCTION OPTIMIZATION

  ----------------------------------- OT ---------------------------------------
  Minimizer      : DIIS                : direct inversion
                                         in the iterative subspace
                                         using   7 DIIS vectors
                                         safer DIIS on
  Preconditioner : FULL_ALL            : diagonalization, state selective
  Precond_solver : DEFAULT
  stepsize       :    0.15000000                  energy_gap     :    0.08000000
  eps_taylor     :   0.10000E-15                  max_taylor     :             4
  ----------------------------------- OT ---------------------------------------

  Step     Update method      Time    Convergence         Total energy    Change
  ------------------------------------------------------------------------------
  Decoupling Energy:                                               0.0370014667
  Recoupling Energy:                                              -0.0063734172
     1 OT DIIS     0.15E+00    4.4     0.00075899      -255.7182133721 -2.56E+02
  Decoupling Energy:                                               0.0370082386
  Recoupling Energy:                                              -0.0063735355
     2 OT DIIS     0.15E+00    1.0     0.00032685      -255.7237312508 -5.52E-03
  Decoupling Energy:                                               0.0370087411
  Recoupling Energy:                                              -0.0063735590
     3 OT DIIS     0.15E+00    1.0     0.00019068      -255.7247685816 -1.04E-03
  Decoupling Energy:                                               0.0370199883
  Recoupling Energy:                                              -0.0063736817
     4 OT DIIS     0.15E+00    1.0     0.00006054      -255.7249610186 -1.92E-04
  Decoupling Energy:                                               0.0370216763
  Recoupling Energy:                                              -0.0063737045
     5 OT DIIS     0.15E+00    1.0     0.00001954      -255.7249775834 -1.66E-05
  Decoupling Energy:                                               0.0370210005
  Recoupling Energy:                                              -0.0063736984
     6 OT DIIS     0.15E+00    1.0     0.00000817      -255.7249798417 -2.26E-06
  Decoupling Energy:                                               0.0370221929
  Recoupling Energy:                                              -0.0063737124
     7 OT DIIS     0.15E+00    1.0     0.00000308      -255.7249803038 -4.62E-07
  Decoupling Energy:                                               0.0370222382
  Recoupling Energy:                                              -0.0063737132
     8 OT DIIS     0.15E+00    1.0     0.00000136      -255.7249803810 -7.72E-08
  Decoupling Energy:                                               0.0370224659
  Recoupling Energy:                                              -0.0063737159
     9 OT DIIS     0.15E+00    1.0     0.00000058      -255.7249803968 -1.57E-08

  *** SCF run converged in     9 steps ***


  Electronic density on regular grids:       -180.0000000000        0.0000000000
  Core density on regular grids:              180.9999999999       -0.0000000001
  Total charge density on r-space grids:        0.9999999999
  Total charge density g-space grids:           0.9999999999

  Overlap energy of the core charge distribution:               0.00002422739645
  Self energy of the core charge distribution:               -615.71576003586028
  Core Hamiltonian energy:                                    191.21095001347379
  Hartree energy:                                             248.07774805757106
  Exchange-correlation energy:                                -61.42683492104428
  Hartree-Fock Exchange energy:                               -18.12283147823666
  QM/MM Electrostatic energy:                                   0.25172373992981

  Total energy:                                              -255.72498039677009

  outer SCF iter =    1 RMS gradient =   0.58E-06 energy =       -255.7249803968
  outer SCF loop converged in   1 iterations or    9 steps

  Decoupling Energy:                                               0.0370224944
  Recoupling Energy:                                              -0.0063737164

 ENERGY| Total FORCE_EVAL ( QMMM ) energy [a.u.]:          -1059.962356566391463

 MD| ***************************************************************************
 MD| Step number                                                               1
 MD| Time [fs]                                                          1.000000
 MD| Conserved quantity [hartree]                            -0.841461427154E+03
 MD| ---------------------------------------------------------------------------
 MD|                                          Instantaneous             Averages
 MD| CPU time per MD step [s]                     87.946623            87.946623
 MD| Energy drift per atom [K]           0.138202491257E+02   0.000000000000E+00
 MD| Potential energy [hartree]         -0.105996235657E+04  -0.105996235657E+04
 MD| Total kinetic energy [hartree]      0.218500929413E+03   0.218500929413E+03
 MD| QM kinetic energy [hartree]         0.121347287768E+00   0.121347287768E+00
 MD| Total temperature [K]                       273.925013           273.925013
 MD| QM temperature [K]                          375.670559           375.670559
 MD| ***************************************************************************

 -------------------------------------------------------------------------------
 -                                                                             -
 -                                DBCSR STATISTICS                             -
 -                                                                             -
 -------------------------------------------------------------------------------
 COUNTER                                    TOTAL       BLAS       SMM       ACC
 flops     9 x    26 x    26               803088     100.0%      0.0%      0.0%
 flops     9 x    32 x    32              2433024     100.0%      0.0%      0.0%
 flops    26 x    26 x    26              6608576     100.0%      0.0%      0.0%
 flops    66 x    26 x    26              8477040     100.0%      0.0%      0.0%
 flops    26 x    26 x   128             13498368     100.0%      0.0%      0.0%
 flops    62 x    26 x    26             15926560     100.0%      0.0%      0.0%
 flops    22 x    26 x    26             16210480     100.0%      0.0%      0.0%
 flops    26 x    26 x    32             16267264     100.0%      0.0%      0.0%
 flops    26 x    32 x    26             16267264     100.0%      0.0%      0.0%
 flops    32 x    26 x    26             16267264     100.0%      0.0%      0.0%
 flops    66 x    26 x   128             18450432     100.0%      0.0%      0.0%
 flops    66 x    26 x    32             20866560     100.0%      0.0%      0.0%
 flops    66 x    32 x    26             20866560     100.0%      0.0%      0.0%
 flops    26 x    26 x   137             28894944     100.0%      0.0%      0.0%
 flops    22 x    26 x   128             30750720     100.0%      0.0%      0.0%
 flops    40 x    26 x    26             30825600     100.0%      0.0%      0.0%
 flops    26 x    32 x   128             33226752     100.0%      0.0%      0.0%
 flops    32 x    26 x   128             33226752     100.0%      0.0%      0.0%
 flops    62 x    26 x   128             34664448     100.0%      0.0%      0.0%
 flops    22 x    32 x    26             34777600     100.0%      0.0%      0.0%
 flops    22 x    26 x    32             34777600     100.0%      0.0%      0.0%
 flops    62 x    26 x    32             39203840     100.0%      0.0%      0.0%
 flops    62 x    32 x    26             39203840     100.0%      0.0%      0.0%
 flops    66 x    26 x   137             39495456     100.0%      0.0%      0.0%
 flops    32 x    32 x    26             40042496     100.0%      0.0%      0.0%
 flops    26 x    32 x    32             40042496     100.0%      0.0%      0.0%
 flops    32 x    26 x    32             40042496     100.0%      0.0%      0.0%
 flops    66 x    32 x   128             45416448     100.0%      0.0%      0.0%
 flops    66 x    32 x    32             51363840     100.0%      0.0%      0.0%
 flops     9 x     9 x    26             54347436     100.0%      0.0%      0.0%
 flops    31 x    26 x    26             59724600     100.0%      0.0%      0.0%
 flops    22 x    26 x   137             65825760     100.0%      0.0%      0.0%
 flops    40 x    26 x   128             67092480     100.0%      0.0%      0.0%
 flops    26 x    26 x   133             70128240     100.0%      0.0%      0.0%
 flops    26 x    32 x   137             71126016     100.0%      0.0%      0.0%
 flops    32 x    26 x   137             71126016     100.0%      0.0%      0.0%
 flops    62 x    26 x   137             74203584     100.0%      0.0%      0.0%
 flops    22 x    32 x   128             75694080     100.0%      0.0%      0.0%
 flops    40 x    32 x    26             75878400     100.0%      0.0%      0.0%
 flops    40 x    26 x    32             75878400     100.0%      0.0%      0.0%
 flops    32 x    32 x   128             81788928     100.0%      0.0%      0.0%
 flops    62 x    32 x   128             85327872     100.0%      0.0%      0.0%
 flops    22 x    32 x    32             91914240     100.0%      0.0%      0.0%
 flops    66 x    26 x   133             95855760     100.0%      0.0%      0.0%
 flops    62 x    32 x    32             96501760     100.0%      0.0%      0.0%
 flops    66 x    32 x   137             97219584     100.0%      0.0%      0.0%
 flops    32 x    32 x    32             98566144     100.0%      0.0%      0.0%
 flops    31 x    26 x   128            129991680     100.0%      0.0%      0.0%
 flops     9 x     9 x    32            133778304     100.0%      0.0%      0.0%
 flops    22 x     9 x    26            136638216     100.0%      0.0%      0.0%
 flops     9 x    22 x    26            136875024     100.0%      0.0%      0.0%
 flops    40 x    26 x   137            143619840     100.0%      0.0%      0.0%
 flops    31 x    32 x    26            147014400     100.0%      0.0%      0.0%
 flops    31 x    26 x    32            147014400     100.0%      0.0%      0.0%
 flops    22 x    26 x   133            159759600     100.0%      0.0%      0.0%
 flops    22 x    32 x   137            162032640     100.0%      0.0%      0.0%
 flops    40 x    32 x   128            165150720     100.0%      0.0%      0.0%
 flops    26 x    32 x   133            172623360     100.0%      0.0%      0.0%
 flops    32 x    26 x   133            172623360     100.0%      0.0%      0.0%
 flops    32 x    32 x   137            175079424     100.0%      0.0%      0.0%
 flops    62 x    26 x   133            180092640     100.0%      0.0%      0.0%
 flops    62 x    32 x   137            182654976     100.0%      0.0%      0.0%
 flops    40 x    32 x    32            186777600     100.0%      0.0%      0.0%
 flops    66 x    32 x   133            235952640     100.0%      0.0%      0.0%
 flops     9 x    26 x     9            238517136     100.0%      0.0%      0.0%
 flops    31 x    26 x   137            278263440     100.0%      0.0%      0.0%
 flops    31 x    32 x   128            319979520     100.0%      0.0%      0.0%
 flops    22 x     9 x    32            336340224     100.0%      0.0%      0.0%
 flops     9 x    22 x    32            336923136     100.0%      0.0%      0.0%
 flops    40 x    26 x   133            348566400     100.0%      0.0%      0.0%
 flops    40 x    32 x   137            353525760     100.0%      0.0%      0.0%
 flops    31 x    32 x    32            361881600     100.0%      0.0%      0.0%
 flops    22 x    22 x    26            364684320     100.0%      0.0%      0.0%
 flops    22 x    32 x   133            393254400     100.0%      0.0%      0.0%
 flops    32 x    32 x   133            424919040     100.0%      0.0%      0.0%
 flops    62 x    32 x   133            443304960     100.0%      0.0%      0.0%
 flops     9 x    32 x     9            587119104     100.0%      0.0%      0.0%
 flops    22 x    26 x     9            618377760     100.0%      0.0%      0.0%
 flops     9 x    26 x    22            618377760     100.0%      0.0%      0.0%
 flops    31 x    26 x   133            675347400     100.0%      0.0%      0.0%
 flops    31 x    32 x   137            684956160     100.0%      0.0%      0.0%
 flops    40 x    32 x   133            858009600     100.0%      0.0%      0.0%
 flops    22 x    22 x    32            897684480     100.0%      0.0%      0.0%
 flops    22 x    32 x     9           1522160640     100.0%      0.0%      0.0%
 flops     9 x    32 x    22           1522160640     100.0%      0.0%      0.0%
 flops    22 x    26 x    22           1603201600     100.0%      0.0%      0.0%
 flops    31 x    32 x   133           1662393600     100.0%      0.0%      0.0%
 flops    22 x    32 x    22           3946342400     100.0%      0.0%      0.0%
 flops inhomo. stacks                   615496320     100.0%      0.0%      0.0%
 flops total                        24.956563E+09     100.0%      0.0%      0.0%
 flops max/rank                      1.174411E+09     100.0%      0.0%      0.0%
 matmuls inhomo. stacks                      1863     100.0%      0.0%      0.0%
 matmuls total                             950208     100.0%      0.0%      0.0%
 number of processed stacks                256959     100.0%      0.0%      0.0%
 average stack size                                     3.7       0.0       0.0
 marketing flops                    27.310242E+09
 -------------------------------------------------------------------------------
 # multiplications                            482
 max memory usage/rank               2.278375E+09
 # max total images/rank                        1
 # max 3D layers                                1
 # MPI messages exchanged                  431872
 MPI messages size (bytes):
  total size                         8.320385E+09
  min size                           0.000000E+00
  max size                         150.152000E+03
  average size                      19.265859E+03
 MPI breakdown and total messages size (bytes):
             size <=      128              294021                        0
       128 < size <=     8192               29715                213950688
      8192 < size <=    32768               27510                790835472
     32768 < size <=   131072               39172               1408838144
    131072 < size <=  4194304               41454               5906760720
   4194304 < size <= 16777216                   0                        0
  16777216 < size                               0                        0
 -------------------------------------------------------------------------------
 -                                                                             -
 -                      DBCSR MESSAGE PASSING PERFORMANCE                      -
 -                                                                             -
 -------------------------------------------------------------------------------
 ROUTINE             CALLS      AVE VOLUME [Bytes]
 MP_Bcast               89                     12.
 MP_Allreduce         2729                      9.
 MP_Alltoall          1727                  10867.
 MP_ISend            15416                  11646.
 MP_IRecv            15416                  11078.
 -------------------------------------------------------------------------------

 -------------------------------------------------------------------------------
 -                                                                             -
 -                                GRID STATISTICS                              -
 -                                                                             -
 -------------------------------------------------------------------------------
 LP    KERNEL             BACKEND                              COUNT     PERCENT
 2     collocate ortho    REF                                 375167      19.08%
 2     integrate ortho    REF                                 369367      18.79%
 1     collocate ortho    REF                                 314273      15.99%
 1     integrate ortho    REF                                 293244      14.92%
 3     integrate ortho    REF                                 186579       9.49%
 3     collocate ortho    REF                                 166727       8.48%
 0     collocate ortho    REF                                  93461       4.75%
 0     integrate ortho    REF                                  84559       4.30%
 4     integrate ortho    REF                                  38185       1.94%
 4     collocate ortho    REF                                  24654       1.25%
 0     collocate general  REF                                   8704       0.44%
 1     integrate general  REF                                   8704       0.44%
 5     integrate ortho    REF                                   2348       0.12%
 -------------------------------------------------------------------------------

 MEMORY| Estimated peak process memory [MiB]                                2259

 -------------------------------------------------------------------------------
 -                                                                             -
 -                         MESSAGE PASSING PERFORMANCE                         -
 -                                                                             -
 -------------------------------------------------------------------------------

 ROUTINE             CALLS      AVE VOLUME [Bytes]
 MP_Group                8
 MP_Bcast             6734               10891759.
 MP_Allreduce          979                1195165.
 MP_Sync               142
 MP_Alltoall           441               18202942.
 MP_ISendRecv         8568                  64949.
 MP_Wait             11066
 MP_comm_split           6
 MP_ISend             2114                 561757.
 MP_IRecv             2112                 561538.
 MP_Recv                14                 102432.
 -------------------------------------------------------------------------------


 -------------------------------------------------------------------------------
 -                                                                             -
 -                           R E F E R E N C E S                               -
 -                                                                             -
 -------------------------------------------------------------------------------
 
 CP2K version 8.2, the CP2K developers group (2021).
 CP2K is freely available from https://www.cp2k.org/ .

 Kuehne,Thomas D.; Iannuzzi,Marcella; Del Ben,Mauro;
 Rybkin,Vladimir V.; Seewald,Patrick; Stein,Frederick; Laino,Teodoro;
 Khaliullin,Rustam Z.; Schuett,Ole; Schiffmann,Florian; Golze,Dorothea;
 Wilhelm,Jan; Chulkov,Sergey; Bani-Hashemian,Mohammad Hossein;
 Weber,Valery; Borstnik,Urban; Taillefumier,Mathieu;
 Jakobovits,Alice Shoshana; Lazzaro,Alfio; Pabst,Hans; Mueller,Tiziano;
 Schade,Robert; Guidon,Manuel; Andermatt,Samuel; Holmberg,Nico;
 Schenter,Gregory K.; Hehn,Anna; Bussy,Augustin; Belleflamme,Fabian;
 Tabacchi,Gloria; Gloess,Andreas; Lass,Michael; Bethune,Iain;
 Mundy,Christopher J.; Plessl,Christian; Watkins,Matt;
 VandeVondele,Joost; Krack,Matthias; Hutter,Juerg. 
 The Journal of Chemical Physics, 152 (19), (2020). 
 CP2K: An electronic structure and molecular dynamics software package -
 Quickstep: Efficient and accurate electronic structure calculations.
 https://doi.org/10.1063/5.0007045

 Schuett, Ole; Messmer, Peter; Hutter, Juerg; VandeVondele, Joost. 
 Electronic Structure Calculations on Graphics Processing Units, John
 Wiley & Sons, Ltd, 173-190 (2016). 
 GPU-Accelerated Sparse Matrix-Matrix Multiplication for
 Linear Scaling Density Functional Theory.
 https://doi.org/10.1002/9781118670712.ch8

 Borstnik, U; VandeVondele, J; Weber, V; Hutter, J. 
 PARALLEL COMPUTING, 40 (5-6), 47-58 (2014). 
 Sparse matrix multiplication: The distributed block-compressed sparse
 row library.
 https://doi.org/10.1016/j.parco.2014.03.012

 Hutter, J; Iannuzzi, M; Schiffmann, F; VandeVondele, J. 
 WIREs Comput Mol Sci., 4 (1), 15-25 (2014). 
 CP2K: atomistic simulations of condensed matter systems.
 https://doi.org/10.1002/wcms.1159

 Marek, A; Blum, V; Johanni, R; Havu, V; Lang, B; Auckenthaler, T;
 Heinecke, A; Bungartz, H; Lederer, H. 
 Journal of Physics: Condensed Matter, 26 (21), (2014). 
 The ELPA library: scalable parallel eigenvalue solutions for
 electronic structure
 theory and computational science.
 https://doi.org/10.1088/0953-8984/26/21/213201

 Guidon, M; Hutter, J; VandeVondele, J. 
 JOURNAL OF CHEMICAL THEORY AND COMPUTATION, 5 (11), 3010-3021 (2009). 
 Robust Periodic Hartree-Fock Exchange for Large-Scale Simulations Using
 Gaussian Basis Sets.
 https://doi.org/10.1021/ct900494g

 Guidon, M; Schiffmann, F; Hutter, J; VandeVondele, J. 
 JOURNAL OF CHEMICAL PHYSICS, 128 (21), 214104 (2008). 
 Ab initio molecular dynamics using hybrid density functionals.
 https://doi.org/10.1063/1.2931945

 Kuhne, TD; Krack, M; Mohamed, FR; Parrinello, M. 
 PHYSICAL REVIEW LETTERS, 98 (6), 066401 (2007). 
 Efficient and accurate Car-Parrinello-like approach to
 Born-Oppenheimer molecular dynamics.
 https://doi.org/10.1103/PhysRevLett.98.066401

 Laino, T; Mohamed, F; Laio, A; Parrinello, M. 
 JOURNAL OF CHEMICAL THEORY AND COMPUTATION, 2 (5), 1370-1378 (2006). 
 An efficient linear-scaling electrostatic coupling for treating
 periodic boundary conditions in QM/MM simulations.
 https://doi.org/10.1021/ct6001169

 Laino, T; Mohamed, F; Laio, A; Parrinello, M. 
 JOURNAL OF CHEMICAL THEORY AND COMPUTATION, 1 (6), 1176-1184 (2005). 
 An efficient real space multigrid QM/MM electrostatic coupling.
 https://doi.org/10.1021/ct050123f

 Krack, M. 
 THEORETICAL CHEMISTRY ACCOUNTS, 114 (1-3), 145-152 (2005). 
 Pseudopotentials for H to Kr optimized for gradient-corrected
 exchange-correlation functionals.
 https://doi.org/10.1007/s00214-005-0655-y

 VandeVondele, J; Krack, M; Mohamed, F; Parrinello, M; Chassaing, T;
 Hutter, J. COMPUTER PHYSICS COMMUNICATIONS, 167 (2), 103-128 (2005). 
 QUICKSTEP: Fast and accurate density functional calculations using a
 mixed Gaussian and plane waves approach.
 https://doi.org/10.1016/j.cpc.2004.12.014

 Frigo, M; Johnson, SG. 
 PROCEEDINGS OF THE IEEE, 93 (2), 216-231 (2005). 
 The design and implementation of FFTW3.
 https://doi.org/10.1109/JPROC.2004.840301

 Kolafa, J. 
 JOURNAL OF COMPUTATIONAL CHEMISTRY, 25 (3), 335-342 (2004). 
 Time-reversible always stable predictor-corrector method for molecular dynamics of polarizable molecules.
 https://doi.org/10.1002/jcc.10385

 VandeVondele, J; Hutter, J. 
 JOURNAL OF CHEMICAL PHYSICS, 118 (10), 4365-4369 (2003). 
 An efficient orbital transformation method for electronic structure
 calculations.
 https://doi.org/10.1063/1.1543154

 Hartwigsen, C; Goedecker, S; Hutter, J. 
 PHYSICAL REVIEW B, 58 (7), 3641-3662 (1998). 
 Relativistic separable dual-space Gaussian pseudopotentials from H to Rn.
 https://doi.org/10.1103/PhysRevB.58.3641

 Lippert, G; Hutter, J; Parrinello, M. 
 MOLECULAR PHYSICS, 92 (3), 477-487 (1997). 
 A hybrid Gaussian and plane wave density functional scheme.
 https://doi.org/10.1080/002689797170220

 Perdew, JP; Burke, K; Ernzerhof, M. 
 PHYSICAL REVIEW LETTERS, 77 (18), 3865-3868 (1996). 
 Generalized gradient approximation made simple.
 https://doi.org/10.1103/PhysRevLett.77.3865

 Goedecker, S; Teter, M; Hutter, J. 
 PHYSICAL REVIEW B, 54 (3), 1703-1710 (1996). 
 Separable dual-space Gaussian pseudopotentials.
 https://doi.org/10.1103/PhysRevB.54.1703

 ESSMANN, U; PERERA, L; BERKOWITZ, ML; DARDEN, T; LEE, H; PEDERSEN, LG. 
 JOURNAL OF CHEMICAL PHYSICS, 103 (19), 8577-8593 (1995). 
 A SMOOTH PARTICLE MESH EWALD METHOD.
 https://doi.org/10.1063/1.470117

 BLOCHL, PE. 
 JOURNAL OF CHEMICAL PHYSICS, 103 (17), 7422-7428 (1995). 
 ELECTROSTATIC DECOUPLING OF PERIODIC IMAGES OF PLANE-WAVE-EXPANDED
 DENSITIES AND DERIVED ATOMIC POINT CHARGES.
 https://doi.org/10.1063/1.470314


 -------------------------------------------------------------------------------
 -                                                                             -
 -                                T I M I N G                                  -
 -                                                                             -
 -------------------------------------------------------------------------------
 SUBROUTINE                       CALLS  ASD         SELF TIME        TOTAL TIME
                                MAXIMUM       AVERAGE  MAXIMUM  AVERAGE  MAXIMUM
 CP2K                                 1  1.0    0.413    0.434  134.231  134.232
 qs_mol_dyn_low                       1  2.0    0.095    0.100   89.016   90.568
 qs_forces                            2  3.5    0.010    0.010   51.779   51.779
 rebuild_ks_matrix                   21  8.2    0.000    0.001   46.325   46.329
 qs_ks_build_kohn_sham_matrix        21  9.2    0.050    0.060   46.324   46.329
 qmmm_env_create                      1  2.0    7.760    7.834   43.197   43.198
 velocity_verlet                      1  3.0    0.027    0.031   40.863   40.875
 hfx_ks_matrix                       21 10.2    0.004    0.004   37.693   37.712
 fist_init                            1  3.0    0.046    0.049   31.998   31.998
 qs_energies                          2  4.5    0.006    0.007   30.517   30.517
 scf_env_do_scf                       2  5.5    0.000    0.001   29.232   29.232
 qs_ks_update_qs_env                 21  7.5    0.000    0.001   25.103   25.107
 qs_ks_update_qs_env_forces           2  4.5    0.000    0.000   21.225   21.226
 derivatives_four_center              2  8.5    0.014    0.281   19.469   19.470
 derivatives_four_center_main         2  9.5    0.046    0.157   19.088   19.089
 derivatives_four_center_bin        190 10.5   18.740   18.938   18.740   18.938
 qmmm_forces                          2  3.5    0.010    0.011   18.318   18.318
 integrate_four_center               21 11.2    1.105    1.800   18.218   18.237
 qmmm_forces_with_gaussian            2  4.5    0.349    0.359   17.860   18.077
 scf_env_do_scf_inner_loop           19  6.5    0.004    0.005   17.708   17.711
 rdparm_amber_8                       2  6.5   12.791   13.033   16.492   16.628
 force_field_control                  1  4.0    0.001    0.005   15.999   16.172
 topology_control                     1  4.0    0.012    0.013   15.831   15.997
 qmmm_el_coupling                     2  3.5    0.000    0.001   15.275   15.468
 qmmm_elec_with_gaussian              2  4.5    0.319    0.339   15.274   15.467
 integrate_four_center_main          21 12.2    0.036    0.075   14.218   14.402
 integrate_four_center_bin         1421 13.2   14.182   14.348   14.182   14.348
 init_scf_loop                        2  6.5    0.004    0.004   11.519   11.520
 connectivity_control                 2  4.0    0.077    0.078    9.868    9.868
 read_connectivity_amber              1  6.0    0.008    0.008    9.627    9.627
 force_field_pack                     1  5.0    0.013    0.026    9.011    9.064
 qmmm_force_with_gaussian_low         2  5.5    0.000    0.000    8.797    8.898
 qmmm_elec_with_gaussian_low          2  5.5    0.000    0.000    7.419    7.714
 qmmm_forces_gaussian_low_R           2  6.5    0.000    0.000    7.233    7.323
 qmmm_forces_with_gaussian_LG         2  7.5    7.233    7.323    7.233    7.323
 pw_integral_ab                     911  7.0    6.903    7.220    6.962    7.304
 pw_restrict_s3                       6  5.5    1.256    1.357    6.932    7.186
 read_force_field_amber               1  5.0    0.012    0.013    6.885    7.021
 pw_transfer                        442 11.7    0.039    0.044    6.376    6.754
 fft_wrap_pw1pw2                    369 12.9    0.004    0.005    6.243    6.619
 fft_wrap_pw1pw2_200                235 14.1    0.632    0.656    5.753    6.107
 qmmm_elec_gaussian_low_R             2  6.5    0.000    0.010    5.563    5.916
 qmmm_elec_with_gaussian_LG           2  7.5    5.563    5.916    5.563    5.916
 mp_sum_dm3                          13  5.2    5.606    5.903    5.606    5.903
 force_field_pack_splines             2  6.0    0.015    0.020    5.538    5.602
 get_nonbond_storage                  2  7.0    0.240    0.251    5.319    5.381
 fft3d_ps                           369 14.9    2.284    2.343    4.956    5.346
 qmmm_elec_with_gaussian:spline       2  5.5    0.000    0.000    5.178    5.334
 pw_prolongate_s3                     6  6.5    0.924    0.995    5.178    5.334
 set_potparm_index                  602  8.0    0.312    0.320    5.079    5.135
 qs_vxc_create                       21 10.2    0.030    0.032    5.041    5.041
 xc_vxc_pw_create                    21 11.2    0.109    0.122    5.011    5.012
 init_genpot                        604  9.0    4.782    4.836    4.782    4.836
 parser_read_line                925134  7.6    0.151    0.159    3.714    4.103
 topology_coordinate_pack             2  4.0    0.000    0.000    3.885    4.052
 parser_read_line_low               933  8.5    0.083    2.640    3.564    3.952
 broadcast_input_information        933  9.5    0.002    0.002    3.481    3.908
 topology_coordinate_pack_11          2  5.0    3.645    3.812    3.645    3.812
 qs_rho_update_rho                   21  7.5    0.001    0.002    3.717    3.720
 calculate_rho_elec                  21  8.5    0.039    0.039    3.716    3.718
 mp_bcast_i                        3758 10.5    2.893    3.322    2.893    3.322
 density_rs2pw                       21  9.5    0.001    0.001    2.456    2.938
 rs_pw_transfer                     180 11.5    0.003    0.004    2.291    2.775
 -------------------------------------------------------------------------------

 The number of warnings for this run is : 0
 
 -------------------------------------------------------------------------------
  **** **** ******  **  PROGRAM ENDED AT                 2021-08-31 15:38:17.498
 ***** ** ***  *** **   PROGRAM RAN ON                                 nid001736
 **    ****   ******    PROGRAM RAN BY                                     hjbio
 ***** **    ** ** **   PROGRAM PROCESS ID                                209266
  **** **  *******  **  PROGRAM STOPPED IN /lus/cls01095/work/d118/d118/hjbio/qm
                                           mm-benchmarking/archer2/CPU/cp2kMD/CB
                                           D_PHY-PBE0/1STEPS/2NODES/128CPN/4THRE
                                           ADS
