 DBCSR| CPU Multiplication driver                                           BLAS
 DBCSR| Multrec recursion limit                                              512
 DBCSR| Multiplication stack size                                           1000
 DBCSR| Maximum elements for images                                    UNLIMITED
 DBCSR| Multiplicative factor virtual images                                   1
 DBCSR| Use multiplication densification                                       T
 DBCSR| Multiplication size stacks                                             3
 DBCSR| Use memory pool for CPU allocation                                     F
 DBCSR| Number of 3D layers                                               SINGLE
 DBCSR| Use MPI memory allocation                                              F
 DBCSR| Use RMA algorithm                                                      F
 DBCSR| Use Communication thread                                               T
 DBCSR| Communication thread load                                             83
 DBCSR| MPI: My node id                                                        0
 DBCSR| MPI: Number of nodes                                                  32
 DBCSR| OMP: Current number of threads                                         2
 DBCSR| OMP: Max number of threads                                             2
 DBCSR| Split modifier for TAS multiplication algorithm                  1.0E+00


  **** **** ******  **  PROGRAM STARTED AT               2021-08-31 17:50:06.418
 ***** ** ***  *** **   PROGRAM STARTED ON                             nid001734
 **    ****   ******    PROGRAM STARTED BY                                 hjbio
 ***** **    ** ** **   PROGRAM PROCESS ID                                 40023
  **** **  *******  **  PROGRAM STARTED IN /lus/cls01095/work/d118/d118/hjbio/qm
                                           mm-benchmarking/archer2/CPU/cp2kMD/CB
                                           D_PHY-PBE0/6STEPS/1NODES/64CPN/2THREA
                                           DS

 CP2K| version string:                                          CP2K version 8.2
 CP2K| source code revision number:                                  git:310b7ab
 CP2K| cp2kflags: omp libint fftw3 libxc elpa parallel mpi3 scalapack plumed2   
 CP2K| is freely available from                            https://www.cp2k.org/
 CP2K| Program compiled at                          Thu 10 Jun 17:43:51 BST 2021
 CP2K| Program compiled on                                                 uan01
 CP2K| Program compiled for                                              ARCHER2
 CP2K| Data directory path              /work/d118/d118/hjbio/CP2K/cp2k-8.2/data
 CP2K| Input file name                                          CBD_PHY-cp2k.inp

 GLOBAL| Force Environment number                                              1
 GLOBAL| Basis set file name                                           HFX_BASIS
 GLOBAL| Potential file name                                           POTENTIAL
 GLOBAL| MM Potential file name                                     MM_POTENTIAL
 GLOBAL| Coordinate file name                                        CBD_PHY.pdb
 GLOBAL| Method name                                                        CP2K
 GLOBAL| Project name                                               CBD_PHY-PBE0
 GLOBAL| Run type                                                             MD
 GLOBAL| FFT library                                                       FFTW3
 GLOBAL| Diagonalization library                                            ELPA
 GLOBAL| Minimum number of eigenvectors for ELPA usage                        16
 GLOBAL| Orthonormality check for eigenvectors                          DISABLED
 GLOBAL| Matrix multiplication library                                    SCALAP
 GLOBAL| All-to-all communication in single precision                          F
 GLOBAL| FFTs using library dependent lengths                                  F
 GLOBAL| Grid backend                                                       AUTO
 GLOBAL| Global print level                                                  LOW
 GLOBAL| MPI I/O enabled                                                       T
 GLOBAL| Total number of message passing processes                            32
 GLOBAL| Number of threads for this process                                    2
 GLOBAL| This output is from process                                           0
 GLOBAL| CPU model name                          AMD EPYC 7742 64-Core Processor
 GLOBAL| CPUID                                                              1002

 MEMORY| system memory details [Kb]
 MEMORY|                        rank 0           min           max       average
 MEMORY| MemTotal            263568576     263568576     263568576     263568576
 MEMORY| MemFree             240874760     240874760     240874760     240874760
 MEMORY| Buffers                339880        339880        339880        339880
 MEMORY| Cached                4952608       4952608       4952608       4952608
 MEMORY| Slab                  3075800       3075800       3075800       3075800
 MEMORY| SReclaimable           355860        355860        355860        355860
 MEMORY| MemLikelyFree       246523108     246523108     246523108     246523108



                      ************* ******** ***********   
                     ************* **********************  
                     ****     **** ****      ***********   
                     ******** ****  *******     ****       
                     *******  ****   *******   ****        
                     ****     ****       ****  ****        
                     ****     **** **********  ****        
                      ****     **** ********    ****       
                     FRONTIERS IN SIMULATION TECHNOLOGY    
                                                           
                        C.J. Mundy, S. Balasubramanian,    
                     Ken Bagchi, J. Hutter, Ari Seitsonen  
                      IFW Kuo, T. Laino, J. VandeVondele   
                                 Version 1.0               

                                                           


 EWALD| Summation is done by:                                               SPME
 EWALD| Alpha parameter [       ANGSTROM^-1]                              0.4000
 EWALD| Real Space Cutoff [          ANGSTROM]                            8.4348
 EWALD| G-space max. Miller index                         80        80        80
 EWALD| Spline interpolation order                                             6

 FORCEFIELD| WARNING: A non Critical ForceField parameter is missing! CP2K GOES!
 FORCEFIELD| Non critical parameters are:Urey-Bradley,Torsions,Impropers, Opbends and 1-4
 FORCEFIELD| All missing parameters will not contribute to the potential energy!
 FORCEFIELD| Activate the print key FF_INFO to have a list of missing parameters

 CHARGE_INFO| Total Charge of the Classical System:                    -0.825808

 SPLINE_INFO| Generating 101926 splines for NONBONDED14 interactions 
              Due to 451 different atomic kinds
  ...10192  ...20384  ...30576  ...40768  ...50960  ...61152  ...71344  ...81536  ...91728  ...101920
 SPLINE_INFO| Number of unique splines computed:            301
 SPLINE_INFO| Done

 SPLINE_INFO| Generating 101926 splines for NONBONDED interactions 
              Due to 451 different atomic kinds
  ...10192  ...20384  ...30576  ...40768  ...50960  ...61152  ...71344  ...81536  ...91728  ...101920
 SPLINE_INFO| Number of unique splines computed:            301
 SPLINE_INFO| Done

 *******************************************************************************
 *******************************************************************************
 **                                                                           **
 **     #####                         ##              ##                      **
 **    ##   ##            ##          ##              ##                      **
 **   ##     ##                       ##            ######                    **
 **   ##     ##  ##   ##  ##   #####  ##  ##   ####   ##    #####    #####    **
 **   ##     ##  ##   ##  ##  ##      ## ##   ##      ##   ##   ##  ##   ##   **
 **   ##  ## ##  ##   ##  ##  ##      ####     ###    ##   ######   ######    **
 **    ##  ###   ##   ##  ##  ##      ## ##      ##   ##   ##       ##        **
 **     #######   #####   ##   #####  ##  ##  ####    ##    #####   ##        **
 **           ##                                                    ##        **
 **                                                                           **
 **                                                ... make the atoms dance   **
 **                                                                           **
 **            Copyright (C) by CP2K developers group (2000-2021)             **
 **                      J. Chem. Phys. 152, 194103 (2020)                    **
 **                                                                           **
 *******************************************************************************


 TOTAL NUMBERS AND MAXIMUM NUMBERS

  Total number of            - Atomic kinds:                                   5
                             - Atoms:                                         68
                             - Shell sets:                                   340
                             - Shells:                                       445
                             - Primitive Cartesian functions:                476
                             - Cartesian basis functions:                   1137
                             - Spherical basis functions:                   1067

  Maximum angular momentum of- Orbital basis functions:                        2
                             - Local part of the GTH pseudopotential:          2
                             - Non-local part of the GTH pseudopotential:      0


 SCF PARAMETERS         Density guess:                                   RESTART
                        --------------------------------------------------------
                        max_scf:                                              30
                        max_scf_history:                                       0
                        max_diis:                                              4
                        --------------------------------------------------------
                        eps_scf:                                        1.00E-06
                        eps_scf_history:                                0.00E+00
                        eps_diis:                                       1.00E-01
                        eps_eigval:                                     1.00E-05
                        --------------------------------------------------------
                        level_shift [a.u.]:                                 0.00
                        --------------------------------------------------------
                        Outer loop SCF in use 
                        No variables optimised in outer loop
                        eps_scf                                         1.00E-06
                        max_scf                                               20
                        No outer loop optimization
                        step_size                                       5.00E-01

 *******************************************************************************
 *******************************************************************************
 **                                                                           **
 **             #######  ##     ## ##     ## ##     ##                        **
 **            ##     ## ###   ### ###   ### ###   ###                        **
 **            ##     ## #### #### #### #### #### ####                        **
 **            ##     ## ## ### ## ## ### ## ## ### ##                        **
 **            ##  ## ## ##     ## ##     ## ##     ##                        **
 **            ##    ##  ##     ## ##     ## ##     ##  T.Laino and F.Mohamed **
 **             ##### ## ##     ## ##     ## ##     ##  2005 - 2015           **
 **                                                                           **
 **                                                     Calculation Started.. **
 *******************************************************************************
 *******************************************************************************

 MD_PAR| Molecular dynamics protocol (MD input parameters)
 MD_PAR| Ensemble type                                                       NVE
 MD_PAR| Number of time steps                                                  6
 MD_PAR| Time step [fs]                                                 1.000000
 MD_PAR| Temperature [K]                                              300.000000
 MD_PAR| Temperature tolerance [K]                                      0.000000
 MD_PAR| Print MD information every                                    1 step(s)
 MD_PAR| File type   Print frequency [steps]                          File names
 MD_PAR| Coordinates          1                           CBD_PHY-PBE0-pos-1.xyz
 MD_PAR| Velocities           1                           CBD_PHY-PBE0-vel-1.xyz
 MD_PAR| Energies             1                              CBD_PHY-PBE0-1.ener
 MD_PAR| Dump                20                           CBD_PHY-PBE0-1.restart

 ROT| Rotational analysis information
 ROT| Principal axes and moments of inertia [a.u.]
 ROT|                           1                   2                   3
 ROT| Eigenvalues      1.56283164001E+13   1.56407408488E+13   1.56663418804E+13
 ROT|      x              0.901637047331     -0.018153263569      0.432112362589
 ROT|      y              0.323714777231      0.690893927917     -0.646431994388
 ROT|      z             -0.286808957117      0.722728191915      0.628812040859
 ROT| Number of rotovibrational vectors                                        6

 DOF| Calculation of degrees of freedom
 DOF| Number of atoms                                                     167923
 DOF| Number of intramolecular constraints                                     0
 DOF| Number of intermolecular constraints                                     0
 DOF| Invariants (translations + rotations)                                    3
 DOF| Degrees of freedom                                                  503766

 DOF| Restraints information
 DOF| Number of intramolecular restraints                                      0
 DOF| Number of intermolecular restraints                                      0

 MD_VEL| Velocities initialization
 MD_VEL| Initial temperature [K]                                      300.000000
 MD_VEL| COM velocity            -0.0000000000     0.0000000000     0.0000000000

  Translating the system in order to center the QM fragment in the QM box.

 Number of electrons:                                                        180
 Number of occupied orbitals:                                                 90
 Number of molecular orbitals:                                                90

 Number of orbital functions:                                               1067
 Number of independent orbital functions:                                   1067

 Extrapolation method: initial_guess


 SCF WAVEFUNCTION OPTIMIZATION

  ----------------------------------- OT ---------------------------------------
  Minimizer      : DIIS                : direct inversion
                                         in the iterative subspace
                                         using   7 DIIS vectors
                                         safer DIIS on
  Preconditioner : FULL_ALL            : diagonalization, state selective
  Precond_solver : DEFAULT
  stepsize       :    0.15000000                  energy_gap     :    0.08000000
  eps_taylor     :   0.10000E-15                  max_taylor     :             4
  ----------------------------------- OT ---------------------------------------

  Step     Update method      Time    Convergence         Total energy    Change
  ------------------------------------------------------------------------------
  Decoupling Energy:                                               0.0370647021
  Recoupling Energy:                                              -0.0063741479
     1 OT DIIS     0.15E+00   19.8     0.00129057      -255.9257316521 -2.56E+02
  Decoupling Energy:                                               0.0370576004
  Recoupling Energy:                                              -0.0063740314
     2 OT DIIS     0.15E+00    3.8     0.00057761      -255.9419521977 -1.62E-02
  Decoupling Energy:                                               0.0369596417
  Recoupling Energy:                                              -0.0063730135
     3 OT DIIS     0.15E+00    3.8     0.00038348      -255.9451217318 -3.17E-03
  Decoupling Energy:                                               0.0369795470
  Recoupling Energy:                                              -0.0063732416
     4 OT DIIS     0.15E+00    3.8     0.00009866      -255.9458275768 -7.06E-04
  Decoupling Energy:                                               0.0369716948
  Recoupling Energy:                                              -0.0063731487
     5 OT DIIS     0.15E+00    3.8     0.00003992      -255.9458779686 -5.04E-05
  Decoupling Energy:                                               0.0369737640
  Recoupling Energy:                                              -0.0063731649
     6 OT DIIS     0.15E+00    3.7     0.00001793      -255.9458894170 -1.14E-05
  Decoupling Energy:                                               0.0369741808
  Recoupling Energy:                                              -0.0063731680
     7 OT DIIS     0.15E+00    3.8     0.00000621      -255.9458922938 -2.88E-06
  Decoupling Energy:                                               0.0369727127
  Recoupling Energy:                                              -0.0063731518
     8 OT DIIS     0.15E+00    3.8     0.00000242      -255.9458926328 -3.39E-07
  Decoupling Energy:                                               0.0369731061
  Recoupling Energy:                                              -0.0063731556
     9 OT DIIS     0.15E+00    3.7     0.00000111      -255.9458926822 -4.94E-08
  Decoupling Energy:                                               0.0369728228
  Recoupling Energy:                                              -0.0063731526
    10 OT DIIS     0.15E+00    3.8     0.00000048      -255.9458926924 -1.02E-08

  *** SCF run converged in    10 steps ***


  Electronic density on regular grids:       -179.9999999999        0.0000000001
  Core density on regular grids:              180.9999999999       -0.0000000001
  Total charge density on r-space grids:        1.0000000000
  Total charge density g-space grids:           1.0000000000

  Overlap energy of the core charge distribution:               0.00001951532734
  Self energy of the core charge distribution:               -615.71576003586028
  Core Hamiltonian energy:                                    191.01363220817871
  Hartree energy:                                             248.20663869015993
  Exchange-correlation energy:                                -61.38430761263372
  Hartree-Fock Exchange energy:                               -18.10821018492850
  QM/MM Electrostatic energy:                                   0.04209472735439

  Total energy:                                              -255.94589269240211

  outer SCF iter =    1 RMS gradient =   0.48E-06 energy =       -255.9458926924
  outer SCF loop converged in   1 iterations or   10 steps

  Decoupling Energy:                                               0.0369728028
  Recoupling Energy:                                              -0.0063731523

 ENERGY| Total FORCE_EVAL ( QMMM ) energy [a.u.]:          -1088.110859624529894

 MD_INI| MD initialization
 MD_INI| Potential energy [hartree]                          -0.108811085962E+04
 MD_INI| Total kinetic energy [hartree]                       0.239300084734E+03
 MD_INI| QM kinetic energy [hartree]                          0.106639360339E+00
 MD_INI| Total temperature [K]                                        300.000000
 MD_INI| QM temperature [K]                                           330.137318
 MD_INI| Cell volume [bohr^3]                                 1.137316355424E+07
 MD_INI| Cell volume [ang^3]                                  1.685328937712E+06
 MD_INI| Cell lengths [bohr]      2.24884969E+02  2.24884969E+02  2.24884969E+02
 MD_INI| Cell lengths [ang]       1.19004000E+02  1.19004000E+02  1.19004000E+02
 MD_INI| Cell angles [deg]        9.00000000E+01  9.00000000E+01  9.00000000E+01

  Translating the system in order to center the QM fragment in the QM box.

 Number of electrons:                                                        180
 Number of occupied orbitals:                                                 90
 Number of molecular orbitals:                                                90

 Number of orbital functions:                                               1067
 Number of independent orbital functions:                                   1067

 Extrapolation method: ASPC


 SCF WAVEFUNCTION OPTIMIZATION

  ----------------------------------- OT ---------------------------------------
  Minimizer      : DIIS                : direct inversion
                                         in the iterative subspace
                                         using   7 DIIS vectors
                                         safer DIIS on
  Preconditioner : FULL_ALL            : diagonalization, state selective
  Precond_solver : DEFAULT
  stepsize       :    0.15000000                  energy_gap     :    0.08000000
  eps_taylor     :   0.10000E-15                  max_taylor     :             4
  ----------------------------------- OT ---------------------------------------

  Step     Update method      Time    Convergence         Total energy    Change
  ------------------------------------------------------------------------------
  Decoupling Energy:                                               0.0370014667
  Recoupling Energy:                                              -0.0063734172
     1 OT DIIS     0.15E+00   16.5     0.00075899      -255.7182133768 -2.56E+02
  Decoupling Energy:                                               0.0370082386
  Recoupling Energy:                                              -0.0063735355
     2 OT DIIS     0.15E+00    3.7     0.00032685      -255.7237312561 -5.52E-03
  Decoupling Energy:                                               0.0370087411
  Recoupling Energy:                                              -0.0063735590
     3 OT DIIS     0.15E+00    3.7     0.00019068      -255.7247685870 -1.04E-03
  Decoupling Energy:                                               0.0370199883
  Recoupling Energy:                                              -0.0063736817
     4 OT DIIS     0.15E+00    3.7     0.00006054      -255.7249610241 -1.92E-04
  Decoupling Energy:                                               0.0370216763
  Recoupling Energy:                                              -0.0063737045
     5 OT DIIS     0.15E+00    3.7     0.00001954      -255.7249775888 -1.66E-05
  Decoupling Energy:                                               0.0370210005
  Recoupling Energy:                                              -0.0063736984
     6 OT DIIS     0.15E+00    3.7     0.00000817      -255.7249798471 -2.26E-06
  Decoupling Energy:                                               0.0370221929
  Recoupling Energy:                                              -0.0063737124
     7 OT DIIS     0.15E+00    3.7     0.00000308      -255.7249803092 -4.62E-07
  Decoupling Energy:                                               0.0370222382
  Recoupling Energy:                                              -0.0063737132
     8 OT DIIS     0.15E+00    3.7     0.00000136      -255.7249803865 -7.72E-08
  Decoupling Energy:                                               0.0370224659
  Recoupling Energy:                                              -0.0063737159
     9 OT DIIS     0.15E+00    3.7     0.00000058      -255.7249804022 -1.57E-08

  *** SCF run converged in     9 steps ***


  Electronic density on regular grids:       -180.0000000000        0.0000000000
  Core density on regular grids:              180.9999999999       -0.0000000001
  Total charge density on r-space grids:        0.9999999999
  Total charge density g-space grids:           0.9999999999

  Overlap energy of the core charge distribution:               0.00002422739645
  Self energy of the core charge distribution:               -615.71576003586028
  Core Hamiltonian energy:                                    191.21094988339203
  Hartree energy:                                             248.07774819061092
  Exchange-correlation energy:                                -61.42683492298733
  Hartree-Fock Exchange energy:                               -18.12283148486241
  QM/MM Electrostatic energy:                                   0.25172374013666

  Total energy:                                              -255.72498040217397

  outer SCF iter =    1 RMS gradient =   0.58E-06 energy =       -255.7249804022
  outer SCF loop converged in   1 iterations or    9 steps

  Decoupling Energy:                                               0.0370224944
  Recoupling Energy:                                              -0.0063737164

 ENERGY| Total FORCE_EVAL ( QMMM ) energy [a.u.]:          -1059.962356571835471

 MD| ***************************************************************************
 MD| Step number                                                               1
 MD| Time [fs]                                                          1.000000
 MD| Conserved quantity [hartree]                            -0.841461427179E+03
 MD| ---------------------------------------------------------------------------
 MD|                                          Instantaneous             Averages
 MD| CPU time per MD step [s]                    276.441239           276.441239
 MD| Energy drift per atom [K]           0.138202490789E+02   0.000000000000E+00
 MD| Potential energy [hartree]         -0.105996235657E+04  -0.105996235657E+04
 MD| Total kinetic energy [hartree]      0.218500929393E+03   0.218500929393E+03
 MD| QM kinetic energy [hartree]         0.121347268332E+00   0.121347268332E+00
 MD| Total temperature [K]                       273.925013           273.925013
 MD| QM temperature [K]                          375.670499           375.670499
 MD| ***************************************************************************

  Translating the system in order to center the QM fragment in the QM box.

 Number of electrons:                                                        180
 Number of occupied orbitals:                                                 90
 Number of molecular orbitals:                                                90

 Number of orbital functions:                                               1067
 Number of independent orbital functions:                                   1067

 Extrapolation method: ASPC


 SCF WAVEFUNCTION OPTIMIZATION

  ----------------------------------- OT ---------------------------------------
  Minimizer      : DIIS                : direct inversion
                                         in the iterative subspace
                                         using   7 DIIS vectors
                                         safer DIIS on
  Preconditioner : FULL_ALL            : diagonalization, state selective
  Precond_solver : DEFAULT
  stepsize       :    0.15000000                  energy_gap     :    0.08000000
  eps_taylor     :   0.10000E-15                  max_taylor     :             4
  ----------------------------------- OT ---------------------------------------

  Step     Update method      Time    Convergence         Total energy    Change
  ------------------------------------------------------------------------------
  Decoupling Energy:                                               0.0370781906
  Recoupling Energy:                                              -0.0063743357
     1 OT DIIS     0.15E+00   16.4     0.00029256      -255.3622520397 -2.55E+02
  Decoupling Energy:                                               0.0370714475
  Recoupling Energy:                                              -0.0063742686
     2 OT DIIS     0.15E+00    3.7     0.00012380      -255.3630878380 -8.36E-04
  Decoupling Energy:                                               0.0370747208
  Recoupling Energy:                                              -0.0063743003
     3 OT DIIS     0.15E+00    3.7     0.00005679      -255.3632551647 -1.67E-04
  Decoupling Energy:                                               0.0370720778
  Recoupling Energy:                                              -0.0063742776
     4 OT DIIS     0.15E+00    3.7     0.00001757      -255.3632739573 -1.88E-05
  Decoupling Energy:                                               0.0370725488
  Recoupling Energy:                                              -0.0063742816
     5 OT DIIS     0.15E+00    3.7     0.00000682      -255.3632754843 -1.53E-06
  Decoupling Energy:                                               0.0370729658
  Recoupling Energy:                                              -0.0063742867
     6 OT DIIS     0.15E+00    3.7     0.00000313      -255.3632757421 -2.58E-07
  Decoupling Energy:                                               0.0370729506
  Recoupling Energy:                                              -0.0063742866
     7 OT DIIS     0.15E+00    3.7     0.00000106      -255.3632758030 -6.10E-08
  Decoupling Energy:                                               0.0370730085
  Recoupling Energy:                                              -0.0063742873
     8 OT DIIS     0.15E+00    3.7     0.00000048      -255.3632758132 -1.02E-08

  *** SCF run converged in     8 steps ***


  Electronic density on regular grids:       -180.0000000000       -0.0000000000
  Core density on regular grids:              180.9999999999       -0.0000000001
  Total charge density on r-space grids:        0.9999999998
  Total charge density g-space grids:           0.9999999998

  Overlap energy of the core charge distribution:               0.00005088941640
  Self energy of the core charge distribution:               -615.71576003586028
  Core Hamiltonian energy:                                    191.44418796674427
  Hartree energy:                                             247.94136548531293
  Exchange-correlation energy:                                -61.47332491666938
  Hartree-Fock Exchange energy:                               -18.13880650019386
  QM/MM Electrostatic energy:                                   0.57901129804869

  Total energy:                                              -255.36327581320128

  outer SCF iter =    1 RMS gradient =   0.48E-06 energy =       -255.3632758132
  outer SCF loop converged in   1 iterations or    8 steps

  Decoupling Energy:                                               0.0370730253
  Recoupling Energy:                                              -0.0063742875

 ENERGY| Total FORCE_EVAL ( QMMM ) energy [a.u.]:          -1061.235329194184033

 MD| ***************************************************************************
 MD| Step number                                                               2
 MD| Time [fs]                                                          2.000000
 MD| Conserved quantity [hartree]                            -0.842817774616E+03
 MD| ---------------------------------------------------------------------------
 MD|                                          Instantaneous             Averages
 MD| CPU time per MD step [s]                    130.228361           203.334800
 MD| Energy drift per atom [K]           0.112696745039E+02   0.563483725193E+01
 MD| Potential energy [hartree]         -0.106123532919E+04  -0.106059884288E+04
 MD| Total kinetic energy [hartree]      0.218417554579E+03   0.218459241986E+03
 MD| QM kinetic energy [hartree]         0.111578054864E+00   0.116462661598E+00
 MD| Total temperature [K]                       273.820490           273.872751
 MD| QM temperature [K]                          345.426676           360.548588
 MD| ***************************************************************************

  Translating the system in order to center the QM fragment in the QM box.

 Number of electrons:                                                        180
 Number of occupied orbitals:                                                 90
 Number of molecular orbitals:                                                90

 Number of orbital functions:                                               1067
 Number of independent orbital functions:                                   1067

 Extrapolation method: ASPC


 SCF WAVEFUNCTION OPTIMIZATION

  ----------------------------------- OT ---------------------------------------
  Minimizer      : DIIS                : direct inversion
                                         in the iterative subspace
                                         using   7 DIIS vectors
                                         safer DIIS on
  Preconditioner : FULL_ALL            : diagonalization, state selective
  Precond_solver : DEFAULT
  stepsize       :    0.15000000                  energy_gap     :    0.08000000
  eps_taylor     :   0.10000E-15                  max_taylor     :             4
  ----------------------------------- OT ---------------------------------------

  Step     Update method      Time    Convergence         Total energy    Change
  ------------------------------------------------------------------------------
  Decoupling Energy:                                               0.0371231509
  Recoupling Energy:                                              -0.0063748340
     1 OT DIIS     0.15E+00   16.5     0.00057311      -254.8840263556 -2.55E+02
  Decoupling Energy:                                               0.0371264097
  Recoupling Energy:                                              -0.0063748790
     2 OT DIIS     0.15E+00    3.8     0.00022566      -254.8871522455 -3.13E-03
  Decoupling Energy:                                               0.0371270553
  Recoupling Energy:                                              -0.0063748843
     3 OT DIIS     0.15E+00    3.7     0.00008226      -254.8877076555 -5.55E-04
  Decoupling Energy:                                               0.0371223470
  Recoupling Energy:                                              -0.0063748375
     4 OT DIIS     0.15E+00    3.7     0.00002752      -254.8877578551 -5.02E-05
  Decoupling Energy:                                               0.0371233156
  Recoupling Energy:                                              -0.0063748478
     5 OT DIIS     0.15E+00    3.7     0.00001036      -254.8877616575 -3.80E-06
  Decoupling Energy:                                               0.0371231626
  Recoupling Energy:                                              -0.0063748451
     6 OT DIIS     0.15E+00    3.7     0.00000439      -254.8877622431 -5.86E-07
  Decoupling Energy:                                               0.0371230841
  Recoupling Energy:                                              -0.0063748446
     7 OT DIIS     0.15E+00    3.7     0.00000136      -254.8877623332 -9.01E-08
  Decoupling Energy:                                               0.0371230859
  Recoupling Energy:                                              -0.0063748447
     8 OT DIIS     0.15E+00    3.8     0.00000059      -254.8877623440 -1.08E-08

  *** SCF run converged in     8 steps ***


  Electronic density on regular grids:       -180.0000000003       -0.0000000003
  Core density on regular grids:              180.9999999999       -0.0000000001
  Total charge density on r-space grids:        0.9999999996
  Total charge density g-space grids:           0.9999999996

  Overlap energy of the core charge distribution:               0.00005124469487
  Self energy of the core charge distribution:               -615.71576003586028
  Core Hamiltonian energy:                                    191.49125302415001
  Hartree energy:                                             247.90728452803276
  Exchange-correlation energy:                                -61.48094559169509
  Hartree-Fock Exchange energy:                               -18.14140153790020
  QM/MM Electrostatic energy:                                   1.05175602457025

  Total energy:                                              -254.88776234400768

  outer SCF iter =    1 RMS gradient =   0.59E-06 energy =       -254.8877623440
  outer SCF loop converged in   1 iterations or    8 steps

  Decoupling Energy:                                               0.0371230860
  Recoupling Energy:                                              -0.0063748446

 ENERGY| Total FORCE_EVAL ( QMMM ) energy [a.u.]:          -1082.045340655442715

 MD| ***************************************************************************
 MD| Step number                                                               3
 MD| Time [fs]                                                          3.000000
 MD| Conserved quantity [hartree]                            -0.846392350662E+03
 MD| ---------------------------------------------------------------------------
 MD|                                          Instantaneous             Averages
 MD| CPU time per MD step [s]                    130.936154           179.201918
 MD| Energy drift per atom [K]           0.454778118035E+01   0.527248522807E+01
 MD| Potential energy [hartree]         -0.108204534066E+04  -0.106774767547E+04
 MD| Total kinetic energy [hartree]      0.235652989993E+03   0.224190491322E+03
 MD| QM kinetic energy [hartree]         0.117355786378E+00   0.116760369858E+00
 MD| Total temperature [K]                       295.427798           281.057767
 MD| QM temperature [K]                          363.313550           361.470242
 MD| ***************************************************************************

  Translating the system in order to center the QM fragment in the QM box.

 Number of electrons:                                                        180
 Number of occupied orbitals:                                                 90
 Number of molecular orbitals:                                                90

 Number of orbital functions:                                               1067
 Number of independent orbital functions:                                   1067

 Extrapolation method: ASPC


 SCF WAVEFUNCTION OPTIMIZATION

  ----------------------------------- OT ---------------------------------------
  Minimizer      : DIIS                : direct inversion
                                         in the iterative subspace
                                         using   7 DIIS vectors
                                         safer DIIS on
  Preconditioner : FULL_ALL            : diagonalization, state selective
  Precond_solver : DEFAULT
  stepsize       :    0.15000000                  energy_gap     :    0.08000000
  eps_taylor     :   0.10000E-15                  max_taylor     :             4
  ----------------------------------- OT ---------------------------------------

  Step     Update method      Time    Convergence         Total energy    Change
  ------------------------------------------------------------------------------
  Decoupling Energy:                                               0.0371654309
  Recoupling Energy:                                              -0.0063753279
     1 OT DIIS     0.15E+00   16.4     0.00026643      -254.3373020758 -2.54E+02
  Decoupling Energy:                                               0.0371742510
  Recoupling Energy:                                              -0.0063754100
     2 OT DIIS     0.15E+00    3.7     0.00010683      -254.3379916747 -6.90E-04
  Decoupling Energy:                                               0.0371691283
  Recoupling Energy:                                              -0.0063753569
     3 OT DIIS     0.15E+00    3.7     0.00003982      -254.3381196745 -1.28E-04
  Decoupling Energy:                                               0.0371714718
  Recoupling Energy:                                              -0.0063753813
     4 OT DIIS     0.15E+00    3.7     0.00001253      -254.3381295167 -9.84E-06
  Decoupling Energy:                                               0.0371702478
  Recoupling Energy:                                              -0.0063753692
     5 OT DIIS     0.15E+00    3.7     0.00000534      -254.3381303442 -8.28E-07
  Decoupling Energy:                                               0.0371705267
  Recoupling Energy:                                              -0.0063753714
     6 OT DIIS     0.15E+00    3.7     0.00000188      -254.3381304792 -1.35E-07
  Decoupling Energy:                                               0.0371705387
  Recoupling Energy:                                              -0.0063753717
     7 OT DIIS     0.15E+00    3.7     0.00000064      -254.3381304977 -1.85E-08

  *** SCF run converged in     7 steps ***


  Electronic density on regular grids:       -179.9999999999        0.0000000001
  Core density on regular grids:              180.9999999999       -0.0000000001
  Total charge density on r-space grids:        1.0000000000
  Total charge density g-space grids:           1.0000000000

  Overlap energy of the core charge distribution:               0.00002358480575
  Self energy of the core charge distribution:               -615.71576003586028
  Core Hamiltonian energy:                                    191.34734316580676
  Hartree energy:                                             247.97608144836312
  Exchange-correlation energy:                                -61.44937086210255
  Hartree-Fock Exchange energy:                               -18.13041869136201
  QM/MM Electrostatic energy:                                   1.63397089266350

  Total energy:                                              -254.33813049768574

  outer SCF iter =    1 RMS gradient =   0.64E-06 energy =       -254.3381304977
  outer SCF loop converged in   1 iterations or    7 steps

  Decoupling Energy:                                               0.0371704667
  Recoupling Energy:                                              -0.0063753710

 ENERGY| Total FORCE_EVAL ( QMMM ) energy [a.u.]:          -1079.714052492222208

 MD| ***************************************************************************
 MD| Step number                                                               4
 MD| Time [fs]                                                          4.000000
 MD| Conserved quantity [hartree]                            -0.842113597147E+03
 MD| ---------------------------------------------------------------------------
 MD|                                          Instantaneous             Averages
 MD| CPU time per MD step [s]                    126.638205           166.060990
 MD| Energy drift per atom [K]           0.125938611386E+02   0.710282920570E+01
 MD| Potential energy [hartree]         -0.107971405249E+04  -0.107073926973E+04
 MD| Total kinetic energy [hartree]      0.237600455345E+03   0.227542982328E+03
 MD| QM kinetic energy [hartree]         0.148327235404E+00   0.124652086244E+00
 MD| Total temperature [K]                       297.869249           285.260637
 MD| QM temperature [K]                          459.195888           385.901653
 MD| ***************************************************************************

  Translating the system in order to center the QM fragment in the QM box.

 Number of electrons:                                                        180
 Number of occupied orbitals:                                                 90
 Number of molecular orbitals:                                                90

 Number of orbital functions:                                               1067
 Number of independent orbital functions:                                   1067

 Extrapolation method: ASPC


 SCF WAVEFUNCTION OPTIMIZATION

  ----------------------------------- OT ---------------------------------------
  Minimizer      : DIIS                : direct inversion
                                         in the iterative subspace
                                         using   7 DIIS vectors
                                         safer DIIS on
  Preconditioner : FULL_ALL            : diagonalization, state selective
  Precond_solver : DEFAULT
  stepsize       :    0.15000000                  energy_gap     :    0.08000000
  eps_taylor     :   0.10000E-15                  max_taylor     :             4
  ----------------------------------- OT ---------------------------------------

  Step     Update method      Time    Convergence         Total energy    Change
  ------------------------------------------------------------------------------
  Decoupling Energy:                                               0.0372103572
  Recoupling Energy:                                              -0.0063758463
     1 OT DIIS     0.15E+00   16.5     0.00032110      -253.7449331962 -2.54E+02
  Decoupling Energy:                                               0.0372071106
  Recoupling Energy:                                              -0.0063758008
     2 OT DIIS     0.15E+00    3.7     0.00013144      -253.7458488937 -9.16E-04
  Decoupling Energy:                                               0.0372094482
  Recoupling Energy:                                              -0.0063758225
     3 OT DIIS     0.15E+00    3.7     0.00006209      -253.7460072184 -1.58E-04
  Decoupling Energy:                                               0.0372087776
  Recoupling Energy:                                              -0.0063758149
     4 OT DIIS     0.15E+00    3.7     0.00002403      -253.7460382401 -3.10E-05
  Decoupling Energy:                                               0.0372096214
  Recoupling Energy:                                              -0.0063758220
     5 OT DIIS     0.15E+00    3.7     0.00000522      -253.7460407168 -2.48E-06
  Decoupling Energy:                                               0.0372093045
  Recoupling Energy:                                              -0.0063758193
     6 OT DIIS     0.15E+00    3.8     0.00000249      -253.7460408594 -1.43E-07
  Decoupling Energy:                                               0.0372093042
  Recoupling Energy:                                              -0.0063758191
     7 OT DIIS     0.15E+00    3.7     0.00000089      -253.7460408910 -3.16E-08

  *** SCF run converged in     7 steps ***


  Electronic density on regular grids:       -180.0000000000       -0.0000000000
  Core density on regular grids:              180.9999999999       -0.0000000001
  Total charge density on r-space grids:        0.9999999998
  Total charge density g-space grids:           0.9999999998

  Overlap energy of the core charge distribution:               0.00001841804557
  Self energy of the core charge distribution:               -615.71576003586028
  Core Hamiltonian energy:                                    191.22474769510785
  Hartree energy:                                             248.04794847957564
  Exchange-correlation energy:                                -61.41799146244139
  Hartree-Fock Exchange energy:                               -18.11952318018874
  QM/MM Electrostatic energy:                                   2.23451919480414

  Total energy:                                              -253.74604089095723

  outer SCF iter =    1 RMS gradient =   0.89E-06 energy =       -253.7460408910
  outer SCF loop converged in   1 iterations or    7 steps

  Decoupling Energy:                                               0.0372093330
  Recoupling Energy:                                              -0.0063758194

 ENERGY| Total FORCE_EVAL ( QMMM ) energy [a.u.]:          -1094.307011166817347

 MD| ***************************************************************************
 MD| Step number                                                               5
 MD| Time [fs]                                                          5.000000
 MD| Conserved quantity [hartree]                            -0.848389416624E+03
 MD| ---------------------------------------------------------------------------
 MD|                                          Instantaneous             Averages
 MD| CPU time per MD step [s]                    127.645581           158.377908
 MD| Energy drift per atom [K]           0.792352793398E+00   0.584073392324E+01
 MD| Potential energy [hartree]         -0.109430701117E+04  -0.107545281802E+04
 MD| Total kinetic energy [hartree]      0.245917594542E+03   0.231217904771E+03
 MD| QM kinetic energy [hartree]         0.157564347629E+00   0.131234538521E+00
 MD| Total temperature [K]                       308.296081           289.867726
 MD| QM temperature [K]                          487.792416           406.279806
 MD| ***************************************************************************

  Translating the system in order to center the QM fragment in the QM box.

 Number of electrons:                                                        180
 Number of occupied orbitals:                                                 90
 Number of molecular orbitals:                                                90

 Number of orbital functions:                                               1067
 Number of independent orbital functions:                                   1067

 Extrapolation method: ASPC


 SCF WAVEFUNCTION OPTIMIZATION

  ----------------------------------- OT ---------------------------------------
  Minimizer      : DIIS                : direct inversion
                                         in the iterative subspace
                                         using   7 DIIS vectors
                                         safer DIIS on
  Preconditioner : FULL_ALL            : diagonalization, state selective
  Precond_solver : DEFAULT
  stepsize       :    0.15000000                  energy_gap     :    0.08000000
  eps_taylor     :   0.10000E-15                  max_taylor     :             4
  ----------------------------------- OT ---------------------------------------

  Step     Update method      Time    Convergence         Total energy    Change
  ------------------------------------------------------------------------------
  Decoupling Energy:                                               0.0372436864
  Recoupling Energy:                                              -0.0063762138
     1 OT DIIS     0.15E+00   16.6     0.00048929      -253.1925204591 -2.53E+02
  Decoupling Energy:                                               0.0372421924
  Recoupling Energy:                                              -0.0063762293
     2 OT DIIS     0.15E+00    3.7     0.00019200      -253.1946657793 -2.15E-03
  Decoupling Energy:                                               0.0372394796
  Recoupling Energy:                                              -0.0063761929
     3 OT DIIS     0.15E+00    3.7     0.00008065      -253.1950223013 -3.57E-04
  Decoupling Energy:                                               0.0372399659
  Recoupling Energy:                                              -0.0063761999
     4 OT DIIS     0.15E+00    3.8     0.00002227      -253.1950811742 -5.89E-05
  Decoupling Energy:                                               0.0372387640
  Recoupling Energy:                                              -0.0063761866
     5 OT DIIS     0.15E+00    3.7     0.00000830      -253.1950837175 -2.54E-06
  Decoupling Energy:                                               0.0372394915
  Recoupling Energy:                                              -0.0063761929
     6 OT DIIS     0.15E+00    3.8     0.00000287      -253.1950840700 -3.53E-07
  Decoupling Energy:                                               0.0372392319
  Recoupling Energy:                                              -0.0063761905
     7 OT DIIS     0.15E+00    3.7     0.00000086      -253.1950841103 -4.02E-08

  *** SCF run converged in     7 steps ***


  Electronic density on regular grids:       -180.0000000000       -0.0000000000
  Core density on regular grids:              180.9999999999       -0.0000000001
  Total charge density on r-space grids:        0.9999999999
  Total charge density g-space grids:           0.9999999999

  Overlap energy of the core charge distribution:               0.00001843293291
  Self energy of the core charge distribution:               -615.71576003586028
  Core Hamiltonian energy:                                    191.21896155358161
  Hartree energy:                                             248.05852443629871
  Exchange-correlation energy:                                -61.40903003751142
  Hartree-Fock Exchange energy:                               -18.11645444706318
  QM/MM Electrostatic energy:                                   2.76865598736308

  Total energy:                                              -253.19508411025853

  outer SCF iter =    1 RMS gradient =   0.86E-06 energy =       -253.1950841103
  outer SCF loop converged in   1 iterations or    7 steps

  Decoupling Energy:                                               0.0372392208
  Recoupling Energy:                                              -0.0063761903

 ENERGY| Total FORCE_EVAL ( QMMM ) energy [a.u.]:          -1057.339965940450838

 MD| ***************************************************************************
 MD| Step number                                                               6
 MD| Time [fs]                                                          6.000000
 MD| Conserved quantity [hartree]                            -0.842900325268E+03
 MD| ---------------------------------------------------------------------------
 MD|                                          Instantaneous             Averages
 MD| CPU time per MD step [s]                    126.794351           153.113982
 MD| Energy drift per atom [K]           0.111144402408E+02   0.671968497616E+01
 MD| Potential energy [hartree]         -0.105733996594E+04  -0.107243400934E+04
 MD| Total kinetic energy [hartree]      0.214439640673E+03   0.228421527421E+03
 MD| QM kinetic energy [hartree]         0.141132326732E+00   0.132884169890E+00
 MD| Total temperature [K]                       268.833554           286.362031
 MD| QM temperature [K]                          436.921674           411.386784
 MD| ***************************************************************************

 -------------------------------------------------------------------------------
 -                                                                             -
 -                                DBCSR STATISTICS                             -
 -                                                                             -
 -------------------------------------------------------------------------------
 COUNTER                                    TOTAL       BLAS       SMM       ACC
 flops     9 x    26 x    26              2810808     100.0%      0.0%      0.0%
 flops    22 x    26 x    26              7287280     100.0%      0.0%      0.0%
 flops     9 x    32 x    32              8515584     100.0%      0.0%      0.0%
 flops    26 x    26 x    26             13709280     100.0%      0.0%      0.0%
 flops    22 x    32 x    32             22077440     100.0%      0.0%      0.0%
 flops    26 x    26 x    32             33745920     100.0%      0.0%      0.0%
 flops    26 x    32 x    26             33745920     100.0%      0.0%      0.0%
 flops    32 x    26 x    26             33745920     100.0%      0.0%      0.0%
 flops    93 x    26 x    26             35206080     100.0%      0.0%      0.0%
 flops   106 x    26 x    26             40127360     100.0%      0.0%      0.0%
 flops   115 x    26 x    26             43534400     100.0%      0.0%      0.0%
 flops   124 x    26 x    26             46941440     100.0%      0.0%      0.0%
 flops   142 x    26 x    26             53755520     100.0%      0.0%      0.0%
 flops   177 x    26 x    26             67005120     100.0%      0.0%      0.0%
 flops    32 x    32 x    26             83066880     100.0%      0.0%      0.0%
 flops    26 x    32 x    32             83066880     100.0%      0.0%      0.0%
 flops    32 x    26 x    32             83066880     100.0%      0.0%      0.0%
 flops    26 x    26 x   133             83074992     100.0%      0.0%      0.0%
 flops    93 x    26 x    32             86661120     100.0%      0.0%      0.0%
 flops    93 x    32 x    26             86661120     100.0%      0.0%      0.0%
 flops    26 x    26 x   146             91195104     100.0%      0.0%      0.0%
 flops   106 x    26 x    32             98775040     100.0%      0.0%      0.0%
 flops   106 x    32 x    26             98775040     100.0%      0.0%      0.0%
 flops   115 x    26 x    32            107161600     100.0%      0.0%      0.0%
 flops   115 x    32 x    26            107161600     100.0%      0.0%      0.0%
 flops   124 x    32 x    26            115548160     100.0%      0.0%      0.0%
 flops   124 x    26 x    32            115548160     100.0%      0.0%      0.0%
 flops    26 x    26 x   124            116180064     100.0%      0.0%      0.0%
 flops   155 x    26 x    26            117353600     100.0%      0.0%      0.0%
 flops   142 x    32 x    26            132321280     100.0%      0.0%      0.0%
 flops   142 x    26 x    32            132321280     100.0%      0.0%      0.0%
 flops    93 x    26 x   133            162083376     100.0%      0.0%      0.0%
 flops   177 x    26 x    32            164935680     100.0%      0.0%      0.0%
 flops   177 x    32 x    26            164935680     100.0%      0.0%      0.0%
 flops     9 x     9 x    26            165405240     100.0%      0.0%      0.0%
 flops    93 x    26 x   146            177926112     100.0%      0.0%      0.0%
 flops   106 x    26 x   133            184740192     100.0%      0.0%      0.0%
 flops   115 x    26 x   133            200425680     100.0%      0.0%      0.0%
 flops   106 x    26 x   146            202797504     100.0%      0.0%      0.0%
 flops    32 x    32 x    32            204472320     100.0%      0.0%      0.0%
 flops    26 x    32 x   133            204492288     100.0%      0.0%      0.0%
 flops    32 x    26 x   133            204492288     100.0%      0.0%      0.0%
 flops    93 x    32 x    32            213319680     100.0%      0.0%      0.0%
 flops   124 x    26 x   133            216111168     100.0%      0.0%      0.0%
 flops   115 x    26 x   146            220016160     100.0%      0.0%      0.0%
 flops    26 x    32 x   146            224480256     100.0%      0.0%      0.0%
 flops    32 x    26 x   146            224480256     100.0%      0.0%      0.0%
 flops    93 x    26 x   124            226672992     100.0%      0.0%      0.0%
 flops   124 x    26 x   146            237234816     100.0%      0.0%      0.0%
 flops   106 x    32 x    32            243138560     100.0%      0.0%      0.0%
 flops   142 x    26 x   133            247482144     100.0%      0.0%      0.0%
 flops   106 x    26 x   124            258358464     100.0%      0.0%      0.0%
 flops   115 x    32 x    32            263782400     100.0%      0.0%      0.0%
 flops   142 x    26 x   146            271672128     100.0%      0.0%      0.0%
 flops   115 x    26 x   124            280294560     100.0%      0.0%      0.0%
 flops   124 x    32 x    32            284426240     100.0%      0.0%      0.0%
 flops    26 x    32 x   124            285981696     100.0%      0.0%      0.0%
 flops    32 x    26 x   124            285981696     100.0%      0.0%      0.0%
 flops   155 x    26 x    32            288870400     100.0%      0.0%      0.0%
 flops   155 x    32 x    26            288870400     100.0%      0.0%      0.0%
 flops   124 x    26 x   124            302230656     100.0%      0.0%      0.0%
 flops   177 x    26 x   133            308481264     100.0%      0.0%      0.0%
 flops   142 x    32 x    32            325713920     100.0%      0.0%      0.0%
 flops   177 x    26 x   146            338633568     100.0%      0.0%      0.0%
 flops   142 x    26 x   124            346102848     100.0%      0.0%      0.0%
 flops    93 x    32 x   133            398974464     100.0%      0.0%      0.0%
 flops   177 x    32 x    32            405995520     100.0%      0.0%      0.0%
 flops     9 x     9 x    32            407151360     100.0%      0.0%      0.0%
 flops    22 x     9 x    26            415855440     100.0%      0.0%      0.0%
 flops     9 x    22 x    26            416576160     100.0%      0.0%      0.0%
 flops   177 x    26 x   124            431409888     100.0%      0.0%      0.0%
 flops    93 x    32 x   146            437971968     100.0%      0.0%      0.0%
 flops   106 x    32 x   133            454745088     100.0%      0.0%      0.0%
 flops   115 x    32 x   133            493355520     100.0%      0.0%      0.0%
 flops   106 x    32 x   146            499193856     100.0%      0.0%      0.0%
 flops    32 x    32 x   133            503365632     100.0%      0.0%      0.0%
 flops   124 x    32 x   133            531965952     100.0%      0.0%      0.0%
 flops   155 x    26 x   133            540277920     100.0%      0.0%      0.0%
 flops   115 x    32 x   146            541578240     100.0%      0.0%      0.0%
 flops    32 x    32 x   146            552566784     100.0%      0.0%      0.0%
 flops    93 x    32 x   124            557964288     100.0%      0.0%      0.0%
 flops   124 x    32 x   146            583962624     100.0%      0.0%      0.0%
 flops   155 x    26 x   146            593087040     100.0%      0.0%      0.0%
 flops   142 x    32 x   133            609186816     100.0%      0.0%      0.0%
 flops   106 x    32 x   124            635959296     100.0%      0.0%      0.0%
 flops   142 x    32 x   146            668731392     100.0%      0.0%      0.0%
 flops   115 x    32 x   124            689955840     100.0%      0.0%      0.0%
 flops    32 x    32 x   124            703954944     100.0%      0.0%      0.0%
 flops   155 x    32 x    32            711065600     100.0%      0.0%      0.0%
 flops   124 x    32 x   124            743952384     100.0%      0.0%      0.0%
 flops   155 x    26 x   124            755576640     100.0%      0.0%      0.0%
 flops   177 x    32 x   133            759338496     100.0%      0.0%      0.0%
 flops     9 x    26 x     9            802701900     100.0%      0.0%      0.0%
 flops   177 x    32 x   146            833559552     100.0%      0.0%      0.0%
 flops   142 x    32 x   124            851945472     100.0%      0.0%      0.0%
 flops    22 x     9 x    32           1023644160     100.0%      0.0%      0.0%
 flops     9 x    22 x    32           1025418240     100.0%      0.0%      0.0%
 flops   177 x    32 x   124           1061932032     100.0%      0.0%      0.0%
 flops    22 x    22 x    26           1109908800     100.0%      0.0%      0.0%
 flops   155 x    32 x   133           1329914880     100.0%      0.0%      0.0%
 flops   155 x    32 x   146           1459906560     100.0%      0.0%      0.0%
 flops   155 x    32 x   124           1859880960     100.0%      0.0%      0.0%
 flops     9 x    32 x     9           1975881600     100.0%      0.0%      0.0%
 flops     9 x    26 x    22           2081079000     100.0%      0.0%      0.0%
 flops    22 x    26 x     9           2081079000     100.0%      0.0%      0.0%
 flops    22 x    22 x    32           2732083200     100.0%      0.0%      0.0%
 flops    22 x    32 x     9           5122656000     100.0%      0.0%      0.0%
 flops     9 x    32 x    22           5122656000     100.0%      0.0%      0.0%
 flops    22 x    26 x    22           5395390000     100.0%      0.0%      0.0%
 flops    22 x    32 x    22          13280960000     100.0%      0.0%      0.0%
 flops inhomo. stacks                  4711951440     100.0%      0.0%      0.0%
 flops total                        79.305457E+09     100.0%      0.0%      0.0%
 flops max/rank                      6.914430E+09     100.0%      0.0%      0.0%
 matmuls inhomo. stacks                      5103     100.0%      0.0%      0.0%
 matmuls total                            2993202     100.0%      0.0%      0.0%
 number of processed stacks                259590     100.0%      0.0%      0.0%
 average stack size                                    11.5       0.0       0.0
 marketing flops                    85.671830E+09
 -------------------------------------------------------------------------------
 # multiplications                           1286
 max memory usage/rank               2.650710E+09
 # max total images/rank                        2
 # max 3D layers                                1
 # MPI messages exchanged                  534976
 MPI messages size (bytes):
  total size                        24.047462E+09
  min size                           0.000000E+00
  max size                         315.360000E+03
  average size                      44.950543E+03
 MPI breakdown and total messages size (bytes):
             size <=      128              312689                        0
       128 < size <=     8192               42723                307609632
      8192 < size <=    32768               47082               1385410320
     32768 < size <=   131072               65058               3164106960
    131072 < size <=  4194304               67424              19190370584
   4194304 < size <= 16777216                   0                        0
  16777216 < size                               0                        0
 -------------------------------------------------------------------------------

 *** WARNING in dbcsr_mm.F:294 :: Using a non-square number of MPI ranks ***
 *** might lead to poor performance. Used ranks: 32 Suggested: 36 64     ***

 -------------------------------------------------------------------------------
 -                                                                             -
 -                      DBCSR MESSAGE PASSING PERFORMANCE                      -
 -                                                                             -
 -------------------------------------------------------------------------------
 ROUTINE             CALLS      AVE VOLUME [Bytes]
 MP_Bcast              111                     12.
 MP_Allreduce         6970                      9.
 MP_Alltoall          5344                  14385.
 MP_ISend            39756                  23564.
 MP_IRecv            39294                  22596.
 -------------------------------------------------------------------------------

 -------------------------------------------------------------------------------
 -                                                                             -
 -                                GRID STATISTICS                              -
 -                                                                             -
 -------------------------------------------------------------------------------
 LP    KERNEL             BACKEND                              COUNT     PERCENT
 2     collocate ortho    REF                                1126269      19.15%
 2     integrate ortho    REF                                1106014      18.80%
 1     collocate ortho    REF                                 943978      16.05%
 1     integrate ortho    REF                                 870340      14.80%
 3     integrate ortho    REF                                 570062       9.69%
 3     collocate ortho    REF                                 500530       8.51%
 0     collocate ortho    REF                                 281245       4.78%
 0     integrate ortho    REF                                 249988       4.25%
 4     integrate ortho    REF                                 121240       2.06%
 4     collocate ortho    REF                                  73823       1.26%
 0     collocate general  REF                                  15232       0.26%
 1     integrate general  REF                                  15232       0.26%
 5     integrate ortho    REF                                   8201       0.14%
 -------------------------------------------------------------------------------

 MEMORY| Estimated peak process memory [MiB]                                2583

 -------------------------------------------------------------------------------
 -                                                                             -
 -                         MESSAGE PASSING PERFORMANCE                         -
 -                                                                             -
 -------------------------------------------------------------------------------

 ROUTINE             CALLS      AVE VOLUME [Bytes]
 MP_Group                8
 MP_Bcast             6942               10565475.
 MP_Allreduce         2477                1659268.
 MP_Sync               437
 MP_Alltoall          1344               35661819.
 MP_ISendRecv        12803                 111406.
 MP_Wait             20454
 MP_comm_split          21
 MP_ISend             6475                 861828.
 MP_IRecv             6468                 861818.
 MP_Recv                49                 102432.
 -------------------------------------------------------------------------------


 -------------------------------------------------------------------------------
 -                                                                             -
 -                           R E F E R E N C E S                               -
 -                                                                             -
 -------------------------------------------------------------------------------
 
 CP2K version 8.2, the CP2K developers group (2021).
 CP2K is freely available from https://www.cp2k.org/ .

 Kuehne,Thomas D.; Iannuzzi,Marcella; Del Ben,Mauro;
 Rybkin,Vladimir V.; Seewald,Patrick; Stein,Frederick; Laino,Teodoro;
 Khaliullin,Rustam Z.; Schuett,Ole; Schiffmann,Florian; Golze,Dorothea;
 Wilhelm,Jan; Chulkov,Sergey; Bani-Hashemian,Mohammad Hossein;
 Weber,Valery; Borstnik,Urban; Taillefumier,Mathieu;
 Jakobovits,Alice Shoshana; Lazzaro,Alfio; Pabst,Hans; Mueller,Tiziano;
 Schade,Robert; Guidon,Manuel; Andermatt,Samuel; Holmberg,Nico;
 Schenter,Gregory K.; Hehn,Anna; Bussy,Augustin; Belleflamme,Fabian;
 Tabacchi,Gloria; Gloess,Andreas; Lass,Michael; Bethune,Iain;
 Mundy,Christopher J.; Plessl,Christian; Watkins,Matt;
 VandeVondele,Joost; Krack,Matthias; Hutter,Juerg. 
 The Journal of Chemical Physics, 152 (19), (2020). 
 CP2K: An electronic structure and molecular dynamics software package -
 Quickstep: Efficient and accurate electronic structure calculations.
 https://doi.org/10.1063/5.0007045

 Schuett, Ole; Messmer, Peter; Hutter, Juerg; VandeVondele, Joost. 
 Electronic Structure Calculations on Graphics Processing Units, John
 Wiley & Sons, Ltd, 173-190 (2016). 
 GPU-Accelerated Sparse Matrix-Matrix Multiplication for
 Linear Scaling Density Functional Theory.
 https://doi.org/10.1002/9781118670712.ch8

 Borstnik, U; VandeVondele, J; Weber, V; Hutter, J. 
 PARALLEL COMPUTING, 40 (5-6), 47-58 (2014). 
 Sparse matrix multiplication: The distributed block-compressed sparse
 row library.
 https://doi.org/10.1016/j.parco.2014.03.012

 Hutter, J; Iannuzzi, M; Schiffmann, F; VandeVondele, J. 
 WIREs Comput Mol Sci., 4 (1), 15-25 (2014). 
 CP2K: atomistic simulations of condensed matter systems.
 https://doi.org/10.1002/wcms.1159

 Marek, A; Blum, V; Johanni, R; Havu, V; Lang, B; Auckenthaler, T;
 Heinecke, A; Bungartz, H; Lederer, H. 
 Journal of Physics: Condensed Matter, 26 (21), (2014). 
 The ELPA library: scalable parallel eigenvalue solutions for
 electronic structure
 theory and computational science.
 https://doi.org/10.1088/0953-8984/26/21/213201

 Guidon, M; Hutter, J; VandeVondele, J. 
 JOURNAL OF CHEMICAL THEORY AND COMPUTATION, 5 (11), 3010-3021 (2009). 
 Robust Periodic Hartree-Fock Exchange for Large-Scale Simulations Using
 Gaussian Basis Sets.
 https://doi.org/10.1021/ct900494g

 Guidon, M; Schiffmann, F; Hutter, J; VandeVondele, J. 
 JOURNAL OF CHEMICAL PHYSICS, 128 (21), 214104 (2008). 
 Ab initio molecular dynamics using hybrid density functionals.
 https://doi.org/10.1063/1.2931945

 Kuhne, TD; Krack, M; Mohamed, FR; Parrinello, M. 
 PHYSICAL REVIEW LETTERS, 98 (6), 066401 (2007). 
 Efficient and accurate Car-Parrinello-like approach to
 Born-Oppenheimer molecular dynamics.
 https://doi.org/10.1103/PhysRevLett.98.066401

 Laino, T; Mohamed, F; Laio, A; Parrinello, M. 
 JOURNAL OF CHEMICAL THEORY AND COMPUTATION, 2 (5), 1370-1378 (2006). 
 An efficient linear-scaling electrostatic coupling for treating
 periodic boundary conditions in QM/MM simulations.
 https://doi.org/10.1021/ct6001169

 Laino, T; Mohamed, F; Laio, A; Parrinello, M. 
 JOURNAL OF CHEMICAL THEORY AND COMPUTATION, 1 (6), 1176-1184 (2005). 
 An efficient real space multigrid QM/MM electrostatic coupling.
 https://doi.org/10.1021/ct050123f

 Krack, M. 
 THEORETICAL CHEMISTRY ACCOUNTS, 114 (1-3), 145-152 (2005). 
 Pseudopotentials for H to Kr optimized for gradient-corrected
 exchange-correlation functionals.
 https://doi.org/10.1007/s00214-005-0655-y

 VandeVondele, J; Krack, M; Mohamed, F; Parrinello, M; Chassaing, T;
 Hutter, J. COMPUTER PHYSICS COMMUNICATIONS, 167 (2), 103-128 (2005). 
 QUICKSTEP: Fast and accurate density functional calculations using a
 mixed Gaussian and plane waves approach.
 https://doi.org/10.1016/j.cpc.2004.12.014

 Frigo, M; Johnson, SG. 
 PROCEEDINGS OF THE IEEE, 93 (2), 216-231 (2005). 
 The design and implementation of FFTW3.
 https://doi.org/10.1109/JPROC.2004.840301

 Kolafa, J. 
 JOURNAL OF COMPUTATIONAL CHEMISTRY, 25 (3), 335-342 (2004). 
 Time-reversible always stable predictor-corrector method for molecular dynamics of polarizable molecules.
 https://doi.org/10.1002/jcc.10385

 VandeVondele, J; Hutter, J. 
 JOURNAL OF CHEMICAL PHYSICS, 118 (10), 4365-4369 (2003). 
 An efficient orbital transformation method for electronic structure
 calculations.
 https://doi.org/10.1063/1.1543154

 Hartwigsen, C; Goedecker, S; Hutter, J. 
 PHYSICAL REVIEW B, 58 (7), 3641-3662 (1998). 
 Relativistic separable dual-space Gaussian pseudopotentials from H to Rn.
 https://doi.org/10.1103/PhysRevB.58.3641

 Lippert, G; Hutter, J; Parrinello, M. 
 MOLECULAR PHYSICS, 92 (3), 477-487 (1997). 
 A hybrid Gaussian and plane wave density functional scheme.
 https://doi.org/10.1080/002689797170220

 Perdew, JP; Burke, K; Ernzerhof, M. 
 PHYSICAL REVIEW LETTERS, 77 (18), 3865-3868 (1996). 
 Generalized gradient approximation made simple.
 https://doi.org/10.1103/PhysRevLett.77.3865

 Goedecker, S; Teter, M; Hutter, J. 
 PHYSICAL REVIEW B, 54 (3), 1703-1710 (1996). 
 Separable dual-space Gaussian pseudopotentials.
 https://doi.org/10.1103/PhysRevB.54.1703

 ESSMANN, U; PERERA, L; BERKOWITZ, ML; DARDEN, T; LEE, H; PEDERSEN, LG. 
 JOURNAL OF CHEMICAL PHYSICS, 103 (19), 8577-8593 (1995). 
 A SMOOTH PARTICLE MESH EWALD METHOD.
 https://doi.org/10.1063/1.470117

 BLOCHL, PE. 
 JOURNAL OF CHEMICAL PHYSICS, 103 (17), 7422-7428 (1995). 
 ELECTROSTATIC DECOUPLING OF PERIODIC IMAGES OF PLANE-WAVE-EXPANDED
 DENSITIES AND DERIVED ATOMIC POINT CHARGES.
 https://doi.org/10.1063/1.470314


 -------------------------------------------------------------------------------
 -                                                                             -
 -                                T I M I N G                                  -
 -                                                                             -
 -------------------------------------------------------------------------------
 SUBROUTINE                       CALLS  ASD         SELF TIME        TOTAL TIME
                                MAXIMUM       AVERAGE  MAXIMUM  AVERAGE  MAXIMUM
 CP2K                                 1  1.0    0.288    0.302  964.968  964.969
 qs_mol_dyn_low                       1  2.0    0.015    0.016  919.608  921.180
 velocity_verlet                      6  3.0    0.063    0.067  775.961  776.049
 qs_forces                            7  3.9    0.001    0.001  607.507  607.508
 rebuild_ks_matrix                   63  8.5    0.000    0.000  571.042  571.066
 qs_ks_build_kohn_sham_matrix        63  9.5    0.010    0.012  571.042  571.066
 hfx_ks_matrix                       63 10.5    0.002    0.002  464.905  464.927
 qs_energies                          7  4.9    0.000    0.001  311.421  311.450
 scf_env_do_scf                       7  5.9    0.000    0.001  305.592  305.592
 qs_ks_update_qs_env_forces           7  4.9    0.000    0.000  295.818  295.824
 qs_ks_update_qs_env                 63  7.8    0.001    0.001  275.234  275.254
 derivatives_four_center              7  8.9    0.017    0.302  271.832  271.833
 derivatives_four_center_main         7  9.9    0.343    0.981  271.206  271.206
 derivatives_four_center_bin        472 10.9  267.599  270.115  267.599  270.115
 integrate_four_center               63 11.5    3.137    3.382  193.062  193.084
 scf_env_do_scf_inner_loop           56  6.8    0.001    0.003  187.037  187.050
 integrate_four_center_main          63 12.5    0.177    0.285  184.512  185.178
 integrate_four_center_bin         4051 13.5  184.335  185.001  184.335  185.001
 qmmm_forces                          7  3.9    0.058    0.060  173.835  173.836
 qmmm_forces_with_gaussian            7  4.9    2.430    2.452  172.150  172.779
 qmmm_el_coupling                     7  3.9    0.000    0.000  128.778  128.975
 qmmm_elec_with_gaussian              7  4.9    1.851    1.897  128.754  128.953
 qmmm_force_with_gaussian_low         7  5.9    0.000    0.000  123.126  123.464
 init_scf_loop                        7  6.9    0.000    0.000  118.538  118.539
 qmmm_forces_gaussian_low_R           7  6.9    0.000    0.000  103.126  103.412
 qmmm_forces_with_gaussian_LG         7  7.9  103.126  103.412  103.126  103.412
 qmmm_elec_with_gaussian_low          7  5.9    0.000    0.000   87.819   89.532
 pw_transfer                       1337 12.0    0.117    0.141   85.326   89.045
 fft_wrap_pw1pw2                   1113 13.1    0.016    0.018   83.307   87.032
 fft_wrap_pw1pw2_200                707 14.4    9.699   10.162   82.076   85.765
 qmmm_elec_gaussian_low_R             7  6.9    0.000    0.000   74.148   75.743
 qmmm_elec_with_gaussian_LG           7  7.9   74.148   75.743   74.148   75.743
 qs_vxc_create                       63 10.5    0.002    0.002   68.927   68.937
 xc_vxc_pw_create                    63 11.5    1.194    1.695   68.925   68.935
 fft3d_ps                          1113 15.1   35.641   36.663   58.542   62.726
 qmmm_env_create                      1  2.0    7.881    7.998   43.467   43.469
 pw_restrict_s3                      21  5.9    9.281    9.460   40.331   40.610
 pw_integral_ab                    2967  7.5   37.009   38.306   37.256   38.570
 xc_rho_set_and_dset_create          63 12.5    0.573    0.607   31.832   34.528
 fist_init                            1  3.0    0.000    0.000   32.277   32.277
 qs_rho_update_rho                   63  7.9    0.000    0.001   31.368   31.375
 calculate_rho_elec                  63  8.9    0.232    0.243   31.368   31.375
 qmmm_elec_with_gaussian:spline       7  5.9    0.000    0.000   29.813   29.998
 pw_prolongate_s3                    21  6.9    6.889    6.983   29.813   29.998
 density_rs2pw                       63  9.9    0.004    0.004   25.024   27.332
 sum_up_and_integrate                63 10.5    0.308    0.321   20.454   20.476
 integrate_v_rspace                  63 11.5    0.002    0.003   20.146   20.185
 qmmm_forces_gaussian_low_G           7  6.9   20.000   20.163   20.000   20.163
 rs_pw_transfer                     546 11.8    0.010    0.011   17.651   20.052
 -------------------------------------------------------------------------------

 The number of warnings for this run is : 1
 
 -------------------------------------------------------------------------------
  **** **** ******  **  PROGRAM ENDED AT                 2021-08-31 18:06:12.006
 ***** ** ***  *** **   PROGRAM RAN ON                                 nid001734
 **    ****   ******    PROGRAM RAN BY                                     hjbio
 ***** **    ** ** **   PROGRAM PROCESS ID                                 40023
  **** **  *******  **  PROGRAM STOPPED IN /lus/cls01095/work/d118/d118/hjbio/qm
                                           mm-benchmarking/archer2/CPU/cp2kMD/CB
                                           D_PHY-PBE0/6STEPS/1NODES/64CPN/2THREA
                                           DS
