 DBCSR| CPU Multiplication driver                                           BLAS
 DBCSR| Multrec recursion limit                                              512
 DBCSR| Multiplication stack size                                           1000
 DBCSR| Maximum elements for images                                    UNLIMITED
 DBCSR| Multiplicative factor virtual images                                   1
 DBCSR| Use multiplication densification                                       T
 DBCSR| Multiplication size stacks                                             3
 DBCSR| Use memory pool for CPU allocation                                     F
 DBCSR| Number of 3D layers                                               SINGLE
 DBCSR| Use MPI memory allocation                                              F
 DBCSR| Use RMA algorithm                                                      F
 DBCSR| Use Communication thread                                               T
 DBCSR| Communication thread load                                             75
 DBCSR| MPI: My node id                                                        0
 DBCSR| MPI: Number of nodes                                                 128
 DBCSR| OMP: Current number of threads                                         4
 DBCSR| OMP: Max number of threads                                             4
 DBCSR| Split modifier for TAS multiplication algorithm                  1.0E+00


  **** **** ******  **  PROGRAM STARTED AT               2021-09-01 13:39:32.042
 ***** ** ***  *** **   PROGRAM STARTED ON                             nid001643
 **    ****   ******    PROGRAM STARTED BY                                 hjbio
 ***** **    ** ** **   PROGRAM PROCESS ID                                136932
  **** **  *******  **  PROGRAM STARTED IN /lus/cls01095/work/d118/d118/hjbio/qm
                                           mm-benchmarking/archer2/CPU/cp2kMD/CB
                                           D_PHY-PBE0/6STEPS/4NODES/128CPN/4THRE
                                           ADS

 CP2K| version string:                                          CP2K version 8.2
 CP2K| source code revision number:                                  git:310b7ab
 CP2K| cp2kflags: omp libint fftw3 libxc elpa parallel mpi3 scalapack plumed2   
 CP2K| is freely available from                            https://www.cp2k.org/
 CP2K| Program compiled at                          Thu 10 Jun 17:43:51 BST 2021
 CP2K| Program compiled on                                                 uan01
 CP2K| Program compiled for                                              ARCHER2
 CP2K| Data directory path              /work/d118/d118/hjbio/CP2K/cp2k-8.2/data
 CP2K| Input file name                                          CBD_PHY-cp2k.inp

 GLOBAL| Force Environment number                                              1
 GLOBAL| Basis set file name                                           HFX_BASIS
 GLOBAL| Potential file name                                           POTENTIAL
 GLOBAL| MM Potential file name                                     MM_POTENTIAL
 GLOBAL| Coordinate file name                                        CBD_PHY.pdb
 GLOBAL| Method name                                                        CP2K
 GLOBAL| Project name                                               CBD_PHY-PBE0
 GLOBAL| Run type                                                             MD
 GLOBAL| FFT library                                                       FFTW3
 GLOBAL| Diagonalization library                                            ELPA
 GLOBAL| Minimum number of eigenvectors for ELPA usage                        16
 GLOBAL| Orthonormality check for eigenvectors                          DISABLED
 GLOBAL| Matrix multiplication library                                    SCALAP
 GLOBAL| All-to-all communication in single precision                          F
 GLOBAL| FFTs using library dependent lengths                                  F
 GLOBAL| Grid backend                                                       AUTO
 GLOBAL| Global print level                                                  LOW
 GLOBAL| MPI I/O enabled                                                       T
 GLOBAL| Total number of message passing processes                           128
 GLOBAL| Number of threads for this process                                    4
 GLOBAL| This output is from process                                           0
 GLOBAL| CPU model name                          AMD EPYC 7742 64-Core Processor
 GLOBAL| CPUID                                                              1002

 MEMORY| system memory details [Kb]
 MEMORY|                        rank 0           min           max       average
 MEMORY| MemTotal            263568576     263568576     263568576     263568576
 MEMORY| MemFree             248987804     248987804     250177552     249645871
 MEMORY| Buffers                247536        197284        247536        221918
 MEMORY| Cached                3049468       2520600       3249644       2844704
 MEMORY| Slab                  1771952       1738804       1857960       1782580
 MEMORY| SReclaimable           211060        155136        211060        179458
 MEMORY| MemLikelyFree       252495868     252495868     253089076     252891951



                      ************* ******** ***********   
                     ************* **********************  
                     ****     **** ****      ***********   
                     ******** ****  *******     ****       
                     *******  ****   *******   ****        
                     ****     ****       ****  ****        
                     ****     **** **********  ****        
                      ****     **** ********    ****       
                     FRONTIERS IN SIMULATION TECHNOLOGY    
                                                           
                        C.J. Mundy, S. Balasubramanian,    
                     Ken Bagchi, J. Hutter, Ari Seitsonen  
                      IFW Kuo, T. Laino, J. VandeVondele   
                                 Version 1.0               

                                                           


 EWALD| Summation is done by:                                               SPME
 EWALD| Alpha parameter [       ANGSTROM^-1]                              0.4000
 EWALD| Real Space Cutoff [          ANGSTROM]                            8.4348
 EWALD| G-space max. Miller index                         80        80        80
 EWALD| Spline interpolation order                                             6

 FORCEFIELD| WARNING: A non Critical ForceField parameter is missing! CP2K GOES!
 FORCEFIELD| Non critical parameters are:Urey-Bradley,Torsions,Impropers, Opbends and 1-4
 FORCEFIELD| All missing parameters will not contribute to the potential energy!
 FORCEFIELD| Activate the print key FF_INFO to have a list of missing parameters

 CHARGE_INFO| Total Charge of the Classical System:                    -0.825808

 SPLINE_INFO| Generating 101926 splines for NONBONDED14 interactions 
              Due to 451 different atomic kinds
  ...10192  ...20384  ...30576  ...40768  ...50960  ...61152  ...71344  ...81536  ...91728  ...101920
 SPLINE_INFO| Number of unique splines computed:            301
 SPLINE_INFO| Done

 SPLINE_INFO| Generating 101926 splines for NONBONDED interactions 
              Due to 451 different atomic kinds
  ...10192  ...20384  ...30576  ...40768  ...50960  ...61152  ...71344  ...81536  ...91728  ...101920
 SPLINE_INFO| Number of unique splines computed:            301
 SPLINE_INFO| Done

 *******************************************************************************
 *******************************************************************************
 **                                                                           **
 **     #####                         ##              ##                      **
 **    ##   ##            ##          ##              ##                      **
 **   ##     ##                       ##            ######                    **
 **   ##     ##  ##   ##  ##   #####  ##  ##   ####   ##    #####    #####    **
 **   ##     ##  ##   ##  ##  ##      ## ##   ##      ##   ##   ##  ##   ##   **
 **   ##  ## ##  ##   ##  ##  ##      ####     ###    ##   ######   ######    **
 **    ##  ###   ##   ##  ##  ##      ## ##      ##   ##   ##       ##        **
 **     #######   #####   ##   #####  ##  ##  ####    ##    #####   ##        **
 **           ##                                                    ##        **
 **                                                                           **
 **                                                ... make the atoms dance   **
 **                                                                           **
 **            Copyright (C) by CP2K developers group (2000-2021)             **
 **                      J. Chem. Phys. 152, 194103 (2020)                    **
 **                                                                           **
 *******************************************************************************


 TOTAL NUMBERS AND MAXIMUM NUMBERS

  Total number of            - Atomic kinds:                                   5
                             - Atoms:                                         68
                             - Shell sets:                                   340
                             - Shells:                                       445
                             - Primitive Cartesian functions:                476
                             - Cartesian basis functions:                   1137
                             - Spherical basis functions:                   1067

  Maximum angular momentum of- Orbital basis functions:                        2
                             - Local part of the GTH pseudopotential:          2
                             - Non-local part of the GTH pseudopotential:      0


 SCF PARAMETERS         Density guess:                                   RESTART
                        --------------------------------------------------------
                        max_scf:                                              30
                        max_scf_history:                                       0
                        max_diis:                                              4
                        --------------------------------------------------------
                        eps_scf:                                        1.00E-06
                        eps_scf_history:                                0.00E+00
                        eps_diis:                                       1.00E-01
                        eps_eigval:                                     1.00E-05
                        --------------------------------------------------------
                        level_shift [a.u.]:                                 0.00
                        --------------------------------------------------------
                        Outer loop SCF in use 
                        No variables optimised in outer loop
                        eps_scf                                         1.00E-06
                        max_scf                                               20
                        No outer loop optimization
                        step_size                                       5.00E-01

 *******************************************************************************
 *******************************************************************************
 **                                                                           **
 **             #######  ##     ## ##     ## ##     ##                        **
 **            ##     ## ###   ### ###   ### ###   ###                        **
 **            ##     ## #### #### #### #### #### ####                        **
 **            ##     ## ## ### ## ## ### ## ## ### ##                        **
 **            ##  ## ## ##     ## ##     ## ##     ##                        **
 **            ##    ##  ##     ## ##     ## ##     ##  T.Laino and F.Mohamed **
 **             ##### ## ##     ## ##     ## ##     ##  2005 - 2015           **
 **                                                                           **
 **                                                     Calculation Started.. **
 *******************************************************************************
 *******************************************************************************

 MD_PAR| Molecular dynamics protocol (MD input parameters)
 MD_PAR| Ensemble type                                                       NVE
 MD_PAR| Number of time steps                                                  6
 MD_PAR| Time step [fs]                                                 1.000000
 MD_PAR| Temperature [K]                                              300.000000
 MD_PAR| Temperature tolerance [K]                                      0.000000
 MD_PAR| Print MD information every                                    1 step(s)
 MD_PAR| File type   Print frequency [steps]                          File names
 MD_PAR| Coordinates          1                           CBD_PHY-PBE0-pos-1.xyz
 MD_PAR| Velocities           1                           CBD_PHY-PBE0-vel-1.xyz
 MD_PAR| Energies             1                              CBD_PHY-PBE0-1.ener
 MD_PAR| Dump                20                           CBD_PHY-PBE0-1.restart

 ROT| Rotational analysis information
 ROT| Principal axes and moments of inertia [a.u.]
 ROT|                           1                   2                   3
 ROT| Eigenvalues      1.56283164001E+13   1.56407408488E+13   1.56663418804E+13
 ROT|      x              0.901637047331     -0.018153263569      0.432112362589
 ROT|      y              0.323714777231      0.690893927917     -0.646431994388
 ROT|      z             -0.286808957117      0.722728191915      0.628812040859
 ROT| Number of rotovibrational vectors                                        6

 DOF| Calculation of degrees of freedom
 DOF| Number of atoms                                                     167923
 DOF| Number of intramolecular constraints                                     0
 DOF| Number of intermolecular constraints                                     0
 DOF| Invariants (translations + rotations)                                    3
 DOF| Degrees of freedom                                                  503766

 DOF| Restraints information
 DOF| Number of intramolecular restraints                                      0
 DOF| Number of intermolecular restraints                                      0

 MD_VEL| Velocities initialization
 MD_VEL| Initial temperature [K]                                      300.000000
 MD_VEL| COM velocity            -0.0000000000     0.0000000000     0.0000000000

  Translating the system in order to center the QM fragment in the QM box.

 Number of electrons:                                                        180
 Number of occupied orbitals:                                                 90
 Number of molecular orbitals:                                                90

 Number of orbital functions:                                               1067
 Number of independent orbital functions:                                   1067

 Extrapolation method: initial_guess


 SCF WAVEFUNCTION OPTIMIZATION

  ----------------------------------- OT ---------------------------------------
  Minimizer      : DIIS                : direct inversion
                                         in the iterative subspace
                                         using   7 DIIS vectors
                                         safer DIIS on
  Preconditioner : FULL_ALL            : diagonalization, state selective
  Precond_solver : DEFAULT
  stepsize       :    0.15000000                  energy_gap     :    0.08000000
  eps_taylor     :   0.10000E-15                  max_taylor     :             4
  ----------------------------------- OT ---------------------------------------

  Step     Update method      Time    Convergence         Total energy    Change
  ------------------------------------------------------------------------------
  Decoupling Energy:                                               0.0370647021
  Recoupling Energy:                                              -0.0063741479
     1 OT DIIS     0.15E+00    4.6     0.00129057      -255.9257316521 -2.56E+02
  Decoupling Energy:                                               0.0370576004
  Recoupling Energy:                                              -0.0063740314
     2 OT DIIS     0.15E+00    0.6     0.00057761      -255.9419521977 -1.62E-02
  Decoupling Energy:                                               0.0369596417
  Recoupling Energy:                                              -0.0063730135
     3 OT DIIS     0.15E+00    0.6     0.00038348      -255.9451217318 -3.17E-03
  Decoupling Energy:                                               0.0369795470
  Recoupling Energy:                                              -0.0063732416
     4 OT DIIS     0.15E+00    0.6     0.00009866      -255.9458275768 -7.06E-04
  Decoupling Energy:                                               0.0369716948
  Recoupling Energy:                                              -0.0063731487
     5 OT DIIS     0.15E+00    0.6     0.00003992      -255.9458779686 -5.04E-05
  Decoupling Energy:                                               0.0369737640
  Recoupling Energy:                                              -0.0063731649
     6 OT DIIS     0.15E+00    0.6     0.00001793      -255.9458894170 -1.14E-05
  Decoupling Energy:                                               0.0369741808
  Recoupling Energy:                                              -0.0063731680
     7 OT DIIS     0.15E+00    0.6     0.00000621      -255.9458922938 -2.88E-06
  Decoupling Energy:                                               0.0369727127
  Recoupling Energy:                                              -0.0063731518
     8 OT DIIS     0.15E+00    0.6     0.00000242      -255.9458926328 -3.39E-07
  Decoupling Energy:                                               0.0369731061
  Recoupling Energy:                                              -0.0063731556
     9 OT DIIS     0.15E+00    0.6     0.00000111      -255.9458926822 -4.94E-08
  Decoupling Energy:                                               0.0369728228
  Recoupling Energy:                                              -0.0063731526
    10 OT DIIS     0.15E+00    0.6     0.00000048      -255.9458926924 -1.02E-08

  *** SCF run converged in    10 steps ***


  Electronic density on regular grids:       -179.9999999999        0.0000000001
  Core density on regular grids:              180.9999999999       -0.0000000001
  Total charge density on r-space grids:        1.0000000000
  Total charge density g-space grids:           1.0000000000

  Overlap energy of the core charge distribution:               0.00001951532734
  Self energy of the core charge distribution:               -615.71576003586028
  Core Hamiltonian energy:                                    191.01363220817919
  Hartree energy:                                             248.20663869015914
  Exchange-correlation energy:                                -61.38430761263390
  Hartree-Fock Exchange energy:                               -18.10821018492850
  QM/MM Electrostatic energy:                                   0.04209472735382

  Total energy:                                              -255.94589269240319

  outer SCF iter =    1 RMS gradient =   0.48E-06 energy =       -255.9458926924
  outer SCF loop converged in   1 iterations or   10 steps

  Decoupling Energy:                                               0.0369728028
  Recoupling Energy:                                              -0.0063731523

 ENERGY| Total FORCE_EVAL ( QMMM ) energy [a.u.]:          -1088.110859624472596

 MD_INI| MD initialization
 MD_INI| Potential energy [hartree]                          -0.108811085962E+04
 MD_INI| Total kinetic energy [hartree]                       0.239300084734E+03
 MD_INI| QM kinetic energy [hartree]                          0.106639360339E+00
 MD_INI| Total temperature [K]                                        300.000000
 MD_INI| QM temperature [K]                                           330.137318
 MD_INI| Cell volume [bohr^3]                                 1.137316355424E+07
 MD_INI| Cell volume [ang^3]                                  1.685328937712E+06
 MD_INI| Cell lengths [bohr]      2.24884969E+02  2.24884969E+02  2.24884969E+02
 MD_INI| Cell lengths [ang]       1.19004000E+02  1.19004000E+02  1.19004000E+02
 MD_INI| Cell angles [deg]        9.00000000E+01  9.00000000E+01  9.00000000E+01

  Translating the system in order to center the QM fragment in the QM box.

 Number of electrons:                                                        180
 Number of occupied orbitals:                                                 90
 Number of molecular orbitals:                                                90

 Number of orbital functions:                                               1067
 Number of independent orbital functions:                                   1067

 Extrapolation method: ASPC


 SCF WAVEFUNCTION OPTIMIZATION

  ----------------------------------- OT ---------------------------------------
  Minimizer      : DIIS                : direct inversion
                                         in the iterative subspace
                                         using   7 DIIS vectors
                                         safer DIIS on
  Preconditioner : FULL_ALL            : diagonalization, state selective
  Precond_solver : DEFAULT
  stepsize       :    0.15000000                  energy_gap     :    0.08000000
  eps_taylor     :   0.10000E-15                  max_taylor     :             4
  ----------------------------------- OT ---------------------------------------

  Step     Update method      Time    Convergence         Total energy    Change
  ------------------------------------------------------------------------------
  Decoupling Energy:                                               0.0370014667
  Recoupling Energy:                                              -0.0063734172
     1 OT DIIS     0.15E+00    2.5     0.00075899      -255.7182133714 -2.56E+02
  Decoupling Energy:                                               0.0370082385
  Recoupling Energy:                                              -0.0063735355
     2 OT DIIS     0.15E+00    0.6     0.00032685      -255.7237312500 -5.52E-03
  Decoupling Energy:                                               0.0370087411
  Recoupling Energy:                                              -0.0063735590
     3 OT DIIS     0.15E+00    0.6     0.00019068      -255.7247685808 -1.04E-03
  Decoupling Energy:                                               0.0370199882
  Recoupling Energy:                                              -0.0063736817
     4 OT DIIS     0.15E+00    0.6     0.00006054      -255.7249610179 -1.92E-04
  Decoupling Energy:                                               0.0370216762
  Recoupling Energy:                                              -0.0063737045
     5 OT DIIS     0.15E+00    0.6     0.00001954      -255.7249775826 -1.66E-05
  Decoupling Energy:                                               0.0370210005
  Recoupling Energy:                                              -0.0063736984
     6 OT DIIS     0.15E+00    0.6     0.00000817      -255.7249798409 -2.26E-06
  Decoupling Energy:                                               0.0370221929
  Recoupling Energy:                                              -0.0063737124
     7 OT DIIS     0.15E+00    0.6     0.00000308      -255.7249803030 -4.62E-07
  Decoupling Energy:                                               0.0370222382
  Recoupling Energy:                                              -0.0063737132
     8 OT DIIS     0.15E+00    0.6     0.00000136      -255.7249803803 -7.72E-08
  Decoupling Energy:                                               0.0370224658
  Recoupling Energy:                                              -0.0063737159
     9 OT DIIS     0.15E+00    0.6     0.00000058      -255.7249803960 -1.57E-08

  *** SCF run converged in     9 steps ***


  Electronic density on regular grids:       -180.0000000000        0.0000000000
  Core density on regular grids:              180.9999999999       -0.0000000001
  Total charge density on r-space grids:        0.9999999999
  Total charge density g-space grids:           0.9999999999

  Overlap energy of the core charge distribution:               0.00002422739645
  Self energy of the core charge distribution:               -615.71576003586028
  Core Hamiltonian energy:                                    191.21094999994580
  Hartree energy:                                             248.07774807103428
  Exchange-correlation energy:                                -61.42683492244888
  Hartree-Fock Exchange energy:                               -18.12283147712208
  QM/MM Electrostatic energy:                                   0.25172374108203

  Total energy:                                              -255.72498039597266

  outer SCF iter =    1 RMS gradient =   0.58E-06 energy =       -255.7249803960
  outer SCF loop converged in   1 iterations or    9 steps

  Decoupling Energy:                                               0.0370224944
  Recoupling Energy:                                              -0.0063737164

 ENERGY| Total FORCE_EVAL ( QMMM ) energy [a.u.]:          -1059.962356565584287

 MD| ***************************************************************************
 MD| Step number                                                               1
 MD| Time [fs]                                                          1.000000
 MD| Conserved quantity [hartree]                            -0.841461427183E+03
 MD| ---------------------------------------------------------------------------
 MD|                                          Instantaneous             Averages
 MD| CPU time per MD step [s]                     58.338213            58.338213
 MD| Energy drift per atom [K]           0.138202490710E+02   0.000000000000E+00
 MD| Potential energy [hartree]         -0.105996235657E+04  -0.105996235657E+04
 MD| Total kinetic energy [hartree]      0.218500929383E+03   0.218500929383E+03
 MD| QM kinetic energy [hartree]         0.121347257908E+00   0.121347257908E+00
 MD| Total temperature [K]                       273.925013           273.925013
 MD| QM temperature [K]                          375.670467           375.670467
 MD| ***************************************************************************

  Translating the system in order to center the QM fragment in the QM box.

 Number of electrons:                                                        180
 Number of occupied orbitals:                                                 90
 Number of molecular orbitals:                                                90

 Number of orbital functions:                                               1067
 Number of independent orbital functions:                                   1067

 Extrapolation method: ASPC


 SCF WAVEFUNCTION OPTIMIZATION

  ----------------------------------- OT ---------------------------------------
  Minimizer      : DIIS                : direct inversion
                                         in the iterative subspace
                                         using   7 DIIS vectors
                                         safer DIIS on
  Preconditioner : FULL_ALL            : diagonalization, state selective
  Precond_solver : DEFAULT
  stepsize       :    0.15000000                  energy_gap     :    0.08000000
  eps_taylor     :   0.10000E-15                  max_taylor     :             4
  ----------------------------------- OT ---------------------------------------

  Step     Update method      Time    Convergence         Total energy    Change
  ------------------------------------------------------------------------------
  Decoupling Energy:                                               0.0370781903
  Recoupling Energy:                                              -0.0063743357
     1 OT DIIS     0.15E+00    2.4     0.00029255      -255.3622518048 -2.55E+02
  Decoupling Energy:                                               0.0370714476
  Recoupling Energy:                                              -0.0063742686
     2 OT DIIS     0.15E+00    0.6     0.00012379      -255.3630875690 -8.36E-04
  Decoupling Energy:                                               0.0370747200
  Recoupling Energy:                                              -0.0063743003
     3 OT DIIS     0.15E+00    0.6     0.00005679      -255.3632548893 -1.67E-04
  Decoupling Energy:                                               0.0370720775
  Recoupling Energy:                                              -0.0063742776
     4 OT DIIS     0.15E+00    0.6     0.00001757      -255.3632736804 -1.88E-05
  Decoupling Energy:                                               0.0370725484
  Recoupling Energy:                                              -0.0063742816
     5 OT DIIS     0.15E+00    0.6     0.00000682      -255.3632752073 -1.53E-06
  Decoupling Energy:                                               0.0370729654
  Recoupling Energy:                                              -0.0063742866
     6 OT DIIS     0.15E+00    0.6     0.00000313      -255.3632754650 -2.58E-07
  Decoupling Energy:                                               0.0370729502
  Recoupling Energy:                                              -0.0063742866
     7 OT DIIS     0.15E+00    0.6     0.00000105      -255.3632755260 -6.10E-08
  Decoupling Energy:                                               0.0370730081
  Recoupling Energy:                                              -0.0063742873
     8 OT DIIS     0.15E+00    0.6     0.00000048      -255.3632755362 -1.02E-08

  *** SCF run converged in     8 steps ***


  Electronic density on regular grids:       -180.0000000000       -0.0000000000
  Core density on regular grids:              180.9999999999       -0.0000000001
  Total charge density on r-space grids:        0.9999999998
  Total charge density g-space grids:           0.9999999998

  Overlap energy of the core charge distribution:               0.00005088934673
  Self energy of the core charge distribution:               -615.71576003586028
  Core Hamiltonian energy:                                    191.44419255571478
  Hartree energy:                                             247.94136021968959
  Exchange-correlation energy:                                -61.47332440803780
  Hartree-Fock Exchange energy:                               -18.13880602516361
  QM/MM Electrostatic energy:                                   0.57901126814183

  Total energy:                                              -255.36327553616871

  outer SCF iter =    1 RMS gradient =   0.48E-06 energy =       -255.3632755362
  outer SCF loop converged in   1 iterations or    8 steps

  Decoupling Energy:                                               0.0370730249
  Recoupling Energy:                                              -0.0063742875

 ENERGY| Total FORCE_EVAL ( QMMM ) energy [a.u.]:          -1061.235328921898599

 MD| ***************************************************************************
 MD| Step number                                                               2
 MD| Time [fs]                                                          2.000000
 MD| Conserved quantity [hartree]                            -0.842817774577E+03
 MD| ---------------------------------------------------------------------------
 MD|                                          Instantaneous             Averages
 MD| CPU time per MD step [s]                     26.105499            42.221856
 MD| Energy drift per atom [K]           0.112696745756E+02   0.563483728781E+01
 MD| Potential energy [hartree]         -0.106123532892E+04  -0.106059884274E+04
 MD| Total kinetic energy [hartree]      0.218417554344E+03   0.218459241864E+03
 MD| QM kinetic energy [hartree]         0.111577822068E+00   0.116462539988E+00
 MD| Total temperature [K]                       273.820489           273.872751
 MD| QM temperature [K]                          345.425956           360.548211
 MD| ***************************************************************************

  Translating the system in order to center the QM fragment in the QM box.

 Number of electrons:                                                        180
 Number of occupied orbitals:                                                 90
 Number of molecular orbitals:                                                90

 Number of orbital functions:                                               1067
 Number of independent orbital functions:                                   1067

 Extrapolation method: ASPC


 SCF WAVEFUNCTION OPTIMIZATION

  ----------------------------------- OT ---------------------------------------
  Minimizer      : DIIS                : direct inversion
                                         in the iterative subspace
                                         using   7 DIIS vectors
                                         safer DIIS on
  Preconditioner : FULL_ALL            : diagonalization, state selective
  Precond_solver : DEFAULT
  stepsize       :    0.15000000                  energy_gap     :    0.08000000
  eps_taylor     :   0.10000E-15                  max_taylor     :             4
  ----------------------------------- OT ---------------------------------------

  Step     Update method      Time    Convergence         Total energy    Change
  ------------------------------------------------------------------------------
  Decoupling Energy:                                               0.0371231612
  Recoupling Energy:                                              -0.0063748341
     1 OT DIIS     0.15E+00    2.4     0.00057313      -254.8840264345 -2.55E+02
  Decoupling Energy:                                               0.0371263670
  Recoupling Energy:                                              -0.0063748786
     2 OT DIIS     0.15E+00    0.6     0.00022567      -254.8871523382 -3.13E-03
  Decoupling Energy:                                               0.0371271096
  Recoupling Energy:                                              -0.0063748848
     3 OT DIIS     0.15E+00    0.6     0.00008228      -254.8877076954 -5.55E-04
  Decoupling Energy:                                               0.0371223156
  Recoupling Energy:                                              -0.0063748371
     4 OT DIIS     0.15E+00    0.6     0.00002751      -254.8877579362 -5.02E-05
  Decoupling Energy:                                               0.0371233264
  Recoupling Energy:                                              -0.0063748479
     5 OT DIIS     0.15E+00    0.6     0.00001036      -254.8877617368 -3.80E-06
  Decoupling Energy:                                               0.0371231609
  Recoupling Energy:                                              -0.0063748450
     6 OT DIIS     0.15E+00    0.6     0.00000439      -254.8877623222 -5.85E-07
  Decoupling Energy:                                               0.0371230835
  Recoupling Energy:                                              -0.0063748446
     7 OT DIIS     0.15E+00    0.6     0.00000136      -254.8877624123 -9.01E-08
  Decoupling Energy:                                               0.0371230866
  Recoupling Energy:                                              -0.0063748447
     8 OT DIIS     0.15E+00    0.6     0.00000059      -254.8877624231 -1.08E-08

  *** SCF run converged in     8 steps ***


  Electronic density on regular grids:       -180.0000000003       -0.0000000003
  Core density on regular grids:              180.9999999999       -0.0000000001
  Total charge density on r-space grids:        0.9999999996
  Total charge density g-space grids:           0.9999999996

  Overlap energy of the core charge distribution:               0.00005124491580
  Self energy of the core charge distribution:               -615.71576003586028
  Core Hamiltonian energy:                                    191.49124520300592
  Hartree energy:                                             247.90729116953622
  Exchange-correlation energy:                                -61.48094461468876
  Hartree-Fock Exchange energy:                               -18.14140127002271
  QM/MM Electrostatic energy:                                   1.05175587997478

  Total energy:                                              -254.88776242313909

  outer SCF iter =    1 RMS gradient =   0.59E-06 energy =       -254.8877624231
  outer SCF loop converged in   1 iterations or    8 steps

  Decoupling Energy:                                               0.0371230859
  Recoupling Energy:                                              -0.0063748446

 ENERGY| Total FORCE_EVAL ( QMMM ) energy [a.u.]:          -1082.045340727796656

 MD| ***************************************************************************
 MD| Step number                                                               3
 MD| Time [fs]                                                          3.000000
 MD| Conserved quantity [hartree]                            -0.846392350770E+03
 MD| ---------------------------------------------------------------------------
 MD|                                          Instantaneous             Averages
 MD| CPU time per MD step [s]                     26.294839            36.912850
 MD| Energy drift per atom [K]           0.454778097695E+01   0.527248518419E+01
 MD| Potential energy [hartree]         -0.108204534073E+04  -0.106774767541E+04
 MD| Total kinetic energy [hartree]      0.235652989957E+03   0.224190491228E+03
 MD| QM kinetic energy [hartree]         0.117355753792E+00   0.116760277923E+00
 MD| Total temperature [K]                       295.427798           281.057767
 MD| QM temperature [K]                          363.313449           361.469957
 MD| ***************************************************************************

  Translating the system in order to center the QM fragment in the QM box.

 Number of electrons:                                                        180
 Number of occupied orbitals:                                                 90
 Number of molecular orbitals:                                                90

 Number of orbital functions:                                               1067
 Number of independent orbital functions:                                   1067

 Extrapolation method: ASPC


 SCF WAVEFUNCTION OPTIMIZATION

  ----------------------------------- OT ---------------------------------------
  Minimizer      : DIIS                : direct inversion
                                         in the iterative subspace
                                         using   7 DIIS vectors
                                         safer DIIS on
  Preconditioner : FULL_ALL            : diagonalization, state selective
  Precond_solver : DEFAULT
  stepsize       :    0.15000000                  energy_gap     :    0.08000000
  eps_taylor     :   0.10000E-15                  max_taylor     :             4
  ----------------------------------- OT ---------------------------------------

  Step     Update method      Time    Convergence         Total energy    Change
  ------------------------------------------------------------------------------
  Decoupling Energy:                                               0.0371654319
  Recoupling Energy:                                              -0.0063753278
     1 OT DIIS     0.15E+00    2.4     0.00026666      -254.3373019655 -2.54E+02
  Decoupling Energy:                                               0.0371743201
  Recoupling Energy:                                              -0.0063754106
     2 OT DIIS     0.15E+00    0.6     0.00010695      -254.3379927734 -6.91E-04
  Decoupling Energy:                                               0.0371690448
  Recoupling Energy:                                              -0.0063753561
     3 OT DIIS     0.15E+00    0.6     0.00004009      -254.3381209901 -1.28E-04
  Decoupling Energy:                                               0.0371715158
  Recoupling Energy:                                              -0.0063753817
     4 OT DIIS     0.15E+00    0.6     0.00001276      -254.3381308855 -9.90E-06
  Decoupling Energy:                                               0.0371702591
  Recoupling Energy:                                              -0.0063753693
     5 OT DIIS     0.15E+00    0.6     0.00000543      -254.3381317302 -8.45E-07
  Decoupling Energy:                                               0.0371705260
  Recoupling Energy:                                              -0.0063753714
     6 OT DIIS     0.15E+00    0.6     0.00000189      -254.3381318695 -1.39E-07
  Decoupling Energy:                                               0.0371705490
  Recoupling Energy:                                              -0.0063753719
     7 OT DIIS     0.15E+00    0.6     0.00000064      -254.3381318882 -1.87E-08

  *** SCF run converged in     7 steps ***


  Electronic density on regular grids:       -179.9999999999        0.0000000001
  Core density on regular grids:              180.9999999999       -0.0000000001
  Total charge density on r-space grids:        1.0000000000
  Total charge density g-space grids:           1.0000000000

  Overlap energy of the core charge distribution:               0.00002358471555
  Self energy of the core charge distribution:               -615.71576003586028
  Core Hamiltonian energy:                                    191.34733266776527
  Hartree energy:                                             247.97608924801807
  Exchange-correlation energy:                                -61.44936909927880
  Hartree-Fock Exchange energy:                               -18.13041866896053
  QM/MM Electrostatic energy:                                   1.63397041538189

  Total energy:                                              -254.33813188821884

  outer SCF iter =    1 RMS gradient =   0.64E-06 energy =       -254.3381318882
  outer SCF loop converged in   1 iterations or    7 steps

  Decoupling Energy:                                               0.0371704732
  Recoupling Energy:                                              -0.0063753710

 ENERGY| Total FORCE_EVAL ( QMMM ) energy [a.u.]:          -1079.714053499380043

 MD| ***************************************************************************
 MD| Step number                                                               4
 MD| Time [fs]                                                          4.000000
 MD| Conserved quantity [hartree]                            -0.842113597221E+03
 MD| ---------------------------------------------------------------------------
 MD|                                          Instantaneous             Averages
 MD| CPU time per MD step [s]                     25.575926            34.078619
 MD| Energy drift per atom [K]           0.125938609994E+02   0.710282913800E+01
 MD| Potential energy [hartree]         -0.107971405350E+04  -0.107073926993E+04
 MD| Total kinetic energy [hartree]      0.237600456279E+03   0.227542982491E+03
 MD| QM kinetic energy [hartree]         0.148328178563E+00   0.124652253083E+00
 MD| Total temperature [K]                       297.869250           285.260638
 MD| QM temperature [K]                          459.198807           385.902170
 MD| ***************************************************************************

  Translating the system in order to center the QM fragment in the QM box.

 Number of electrons:                                                        180
 Number of occupied orbitals:                                                 90
 Number of molecular orbitals:                                                90

 Number of orbital functions:                                               1067
 Number of independent orbital functions:                                   1067

 Extrapolation method: ASPC


 SCF WAVEFUNCTION OPTIMIZATION

  ----------------------------------- OT ---------------------------------------
  Minimizer      : DIIS                : direct inversion
                                         in the iterative subspace
                                         using   7 DIIS vectors
                                         safer DIIS on
  Preconditioner : FULL_ALL            : diagonalization, state selective
  Precond_solver : DEFAULT
  stepsize       :    0.15000000                  energy_gap     :    0.08000000
  eps_taylor     :   0.10000E-15                  max_taylor     :             4
  ----------------------------------- OT ---------------------------------------

  Step     Update method      Time    Convergence         Total energy    Change
  ------------------------------------------------------------------------------
  Decoupling Energy:                                               0.0372102421
  Recoupling Energy:                                              -0.0063758454
     1 OT DIIS     0.15E+00    2.4     0.00032120      -253.7449327487 -2.54E+02
  Decoupling Energy:                                               0.0372070815
  Recoupling Energy:                                              -0.0063758007
     2 OT DIIS     0.15E+00    0.6     0.00013156      -253.7458491683 -9.16E-04
  Decoupling Energy:                                               0.0372094496
  Recoupling Energy:                                              -0.0063758223
     3 OT DIIS     0.15E+00    0.6     0.00006234      -253.7460076647 -1.58E-04
  Decoupling Energy:                                               0.0372087364
  Recoupling Energy:                                              -0.0063758147
     4 OT DIIS     0.15E+00    0.6     0.00002437      -253.7460387584 -3.11E-05
  Decoupling Energy:                                               0.0372096106
  Recoupling Energy:                                              -0.0063758218
     5 OT DIIS     0.15E+00    0.6     0.00000527      -253.7460412923 -2.53E-06
  Decoupling Energy:                                               0.0372092978
  Recoupling Energy:                                              -0.0063758192
     6 OT DIIS     0.15E+00    0.6     0.00000251      -253.7460414366 -1.44E-07
  Decoupling Energy:                                               0.0372092928
  Recoupling Energy:                                              -0.0063758190
     7 OT DIIS     0.15E+00    0.6     0.00000088      -253.7460414687 -3.22E-08

  *** SCF run converged in     7 steps ***


  Electronic density on regular grids:       -180.0000000000       -0.0000000000
  Core density on regular grids:              180.9999999999       -0.0000000001
  Total charge density on r-space grids:        0.9999999998
  Total charge density g-space grids:           0.9999999998

  Overlap energy of the core charge distribution:               0.00001841785280
  Self energy of the core charge distribution:               -615.71576003586028
  Core Hamiltonian energy:                                    191.22474209552803
  Hartree energy:                                             248.04794930600821
  Exchange-correlation energy:                                -61.41798842335314
  Hartree-Fock Exchange energy:                               -18.11952176589992
  QM/MM Electrostatic energy:                                   2.23451893699432

  Total energy:                                              -253.74604146872994

  outer SCF iter =    1 RMS gradient =   0.88E-06 energy =       -253.7460414687
  outer SCF loop converged in   1 iterations or    7 steps

  Decoupling Energy:                                               0.0372093234
  Recoupling Energy:                                              -0.0063758193

 ENERGY| Total FORCE_EVAL ( QMMM ) energy [a.u.]:          -1094.307010921172832

 MD| ***************************************************************************
 MD| Step number                                                               5
 MD| Time [fs]                                                          5.000000
 MD| Conserved quantity [hartree]                            -0.848389415120E+03
 MD| ---------------------------------------------------------------------------
 MD|                                          Instantaneous             Averages
 MD| CPU time per MD step [s]                     25.745953            32.412086
 MD| Energy drift per atom [K]           0.792355622547E+00   0.584073443491E+01
 MD| Potential energy [hartree]         -0.109430701092E+04  -0.107545281813E+04
 MD| Total kinetic energy [hartree]      0.245917595801E+03   0.231217905153E+03
 MD| QM kinetic energy [hartree]         0.157565617481E+00   0.131234925962E+00
 MD| Total temperature [K]                       308.296083           289.867727
 MD| QM temperature [K]                          487.796347           406.281005
 MD| ***************************************************************************

  Translating the system in order to center the QM fragment in the QM box.

 Number of electrons:                                                        180
 Number of occupied orbitals:                                                 90
 Number of molecular orbitals:                                                90

 Number of orbital functions:                                               1067
 Number of independent orbital functions:                                   1067

 Extrapolation method: ASPC


 SCF WAVEFUNCTION OPTIMIZATION

  ----------------------------------- OT ---------------------------------------
  Minimizer      : DIIS                : direct inversion
                                         in the iterative subspace
                                         using   7 DIIS vectors
                                         safer DIIS on
  Preconditioner : FULL_ALL            : diagonalization, state selective
  Precond_solver : DEFAULT
  stepsize       :    0.15000000                  energy_gap     :    0.08000000
  eps_taylor     :   0.10000E-15                  max_taylor     :             4
  ----------------------------------- OT ---------------------------------------

  Step     Update method      Time    Convergence         Total energy    Change
  ------------------------------------------------------------------------------
  Decoupling Energy:                                               0.0372440462
  Recoupling Energy:                                              -0.0063762175
     1 OT DIIS     0.15E+00    2.4     0.00048934      -253.1925203168 -2.53E+02
  Decoupling Energy:                                               0.0372420587
  Recoupling Energy:                                              -0.0063762278
     2 OT DIIS     0.15E+00    0.6     0.00019204      -253.1946661451 -2.15E-03
  Decoupling Energy:                                               0.0372396211
  Recoupling Energy:                                              -0.0063761945
     3 OT DIIS     0.15E+00    0.6     0.00008073      -253.1950227277 -3.57E-04
  Decoupling Energy:                                               0.0372399134
  Recoupling Energy:                                              -0.0063761992
     4 OT DIIS     0.15E+00    0.6     0.00002246      -253.1950816192 -5.89E-05
  Decoupling Energy:                                               0.0372387823
  Recoupling Energy:                                              -0.0063761869
     5 OT DIIS     0.15E+00    0.6     0.00000836      -253.1950841903 -2.57E-06
  Decoupling Energy:                                               0.0372394897
  Recoupling Energy:                                              -0.0063761929
     6 OT DIIS     0.15E+00    0.6     0.00000289      -253.1950845474 -3.57E-07
  Decoupling Energy:                                               0.0372392323
  Recoupling Energy:                                              -0.0063761905
     7 OT DIIS     0.15E+00    0.6     0.00000086      -253.1950845882 -4.07E-08

  *** SCF run converged in     7 steps ***


  Electronic density on regular grids:       -180.0000000000       -0.0000000000
  Core density on regular grids:              180.9999999999       -0.0000000001
  Total charge density on r-space grids:        0.9999999999
  Total charge density g-space grids:           0.9999999999

  Overlap energy of the core charge distribution:               0.00001843286994
  Self energy of the core charge distribution:               -615.71576003586028
  Core Hamiltonian energy:                                    191.21894892269955
  Hartree energy:                                             248.05853353874983
  Exchange-correlation energy:                                -61.40902695510786
  Hartree-Fock Exchange energy:                               -18.11645361258268
  QM/MM Electrostatic energy:                                   2.76865512104192

  Total energy:                                              -253.19508458818956

  outer SCF iter =    1 RMS gradient =   0.86E-06 energy =       -253.1950845882
  outer SCF loop converged in   1 iterations or    7 steps

  Decoupling Energy:                                               0.0372392226
  Recoupling Energy:                                              -0.0063761903

 ENERGY| Total FORCE_EVAL ( QMMM ) energy [a.u.]:          -1057.339965242900234

 MD| ***************************************************************************
 MD| Step number                                                               6
 MD| Time [fs]                                                          6.000000
 MD| Conserved quantity [hartree]                            -0.842900322766E+03
 MD| ---------------------------------------------------------------------------
 MD|                                          Instantaneous             Averages
 MD| CPU time per MD step [s]                     25.504838            31.260878
 MD| Energy drift per atom [K]           0.111144449463E+02   0.671968618680E+01
 MD| Potential energy [hartree]         -0.105733996524E+04  -0.107243400931E+04
 MD| Total kinetic energy [hartree]      0.214439642477E+03   0.228421528040E+03
 MD| QM kinetic energy [hartree]         0.141134134104E+00   0.132884793986E+00
 MD| Total temperature [K]                       268.833556           286.362032
 MD| QM temperature [K]                          436.927270           411.388716
 MD| ***************************************************************************

 -------------------------------------------------------------------------------
 -                                                                             -
 -                                DBCSR STATISTICS                             -
 -                                                                             -
 -------------------------------------------------------------------------------
 COUNTER                                    TOTAL       BLAS       SMM       ACC
 flops     9 x    26 x    26              6217848     100.0%      0.0%      0.0%
 flops     9 x    26 x    32              8386560     100.0%      0.0%      0.0%
 flops     9 x    32 x    26              8386560     100.0%      0.0%      0.0%
 flops    27 x    26 x    26             10221120     100.0%      0.0%      0.0%
 flops     9 x    26 x    75             13267800     100.0%      0.0%      0.0%
 flops    26 x    26 x    26             14447472     100.0%      0.0%      0.0%
 flops     9 x    26 x    71             16746912     100.0%      0.0%      0.0%
 flops    22 x    26 x    26             23943920     100.0%      0.0%      0.0%
 flops    27 x    26 x    32             25159680     100.0%      0.0%      0.0%
 flops    27 x    32 x    26             25159680     100.0%      0.0%      0.0%
 flops     9 x    32 x    32             29159424     100.0%      0.0%      0.0%
 flops    40 x    26 x    26             30284800     100.0%      0.0%      0.0%
 flops    84 x    26 x    26             31799040     100.0%      0.0%      0.0%
 flops     9 x    32 x    75             32659200     100.0%      0.0%      0.0%
 flops     9 x    26 x    62             32904144     100.0%      0.0%      0.0%
 flops    26 x    26 x    32             35563008     100.0%      0.0%      0.0%
 flops    26 x    32 x    26             35563008     100.0%      0.0%      0.0%
 flops    32 x    26 x    26             35563008     100.0%      0.0%      0.0%
 flops    27 x    26 x    75             39803400     100.0%      0.0%      0.0%
 flops    22 x    32 x    26             41000960     100.0%      0.0%      0.0%
 flops    22 x    26 x    32             41000960     100.0%      0.0%      0.0%
 flops     9 x    32 x    71             41223168     100.0%      0.0%      0.0%
 flops    27 x    26 x    71             50240736     100.0%      0.0%      0.0%
 flops    27 x    32 x    32             61931520     100.0%      0.0%      0.0%
 flops    22 x    26 x    75             64864800     100.0%      0.0%      0.0%
 flops    26 x    26 x    75             70270200     100.0%      0.0%      0.0%
 flops    40 x    26 x    32             74547200     100.0%      0.0%      0.0%
 flops    40 x    32 x    26             74547200     100.0%      0.0%      0.0%
 flops    84 x    26 x    32             78274560     100.0%      0.0%      0.0%
 flops    84 x    32 x    26             78274560     100.0%      0.0%      0.0%
 flops     9 x    32 x    62             80994816     100.0%      0.0%      0.0%
 flops    22 x    26 x    71             81873792     100.0%      0.0%      0.0%
 flops    32 x    32 x    26             87539712     100.0%      0.0%      0.0%
 flops    26 x    32 x    32             87539712     100.0%      0.0%      0.0%
 flops    32 x    26 x    32             87539712     100.0%      0.0%      0.0%
 flops    26 x    26 x    71             88696608     100.0%      0.0%      0.0%
 flops    27 x    32 x    75             97977600     100.0%      0.0%      0.0%
 flops    27 x    26 x    62             98712432     100.0%      0.0%      0.0%
 flops    53 x    26 x    26            100318400     100.0%      0.0%      0.0%
 flops    40 x    26 x    75            117936000     100.0%      0.0%      0.0%
 flops    22 x    32 x    32            123002880     100.0%      0.0%      0.0%
 flops    27 x    32 x    71            123669504     100.0%      0.0%      0.0%
 flops    84 x    26 x    75            123832800     100.0%      0.0%      0.0%
 flops    40 x    26 x    71            148861440     100.0%      0.0%      0.0%
 flops    84 x    26 x    71            156304512     100.0%      0.0%      0.0%
 flops    22 x    32 x    75            159667200     100.0%      0.0%      0.0%
 flops    22 x    26 x    62            160864704     100.0%      0.0%      0.0%
 flops    31 x    26 x    26            164295040     100.0%      0.0%      0.0%
 flops     9 x     9 x    26            165405240     100.0%      0.0%      0.0%
 flops    26 x    32 x    75            172972800     100.0%      0.0%      0.0%
 flops    32 x    26 x    75            172972800     100.0%      0.0%      0.0%
 flops    26 x    26 x    62            174270096     100.0%      0.0%      0.0%
 flops    40 x    32 x    32            183500800     100.0%      0.0%      0.0%
 flops    84 x    32 x    32            192675840     100.0%      0.0%      0.0%
 flops    22 x    32 x    71            201535488     100.0%      0.0%      0.0%
 flops    32 x    32 x    32            215482368     100.0%      0.0%      0.0%
 flops    26 x    32 x    71            218330112     100.0%      0.0%      0.0%
 flops    32 x    26 x    71            218330112     100.0%      0.0%      0.0%
 flops    27 x    32 x    62            242984448     100.0%      0.0%      0.0%
 flops    53 x    32 x    26            246937600     100.0%      0.0%      0.0%
 flops    53 x    26 x    32            246937600     100.0%      0.0%      0.0%
 flops    40 x    32 x    75            290304000     100.0%      0.0%      0.0%
 flops    40 x    26 x    62            292481280     100.0%      0.0%      0.0%
 flops    84 x    32 x    75            304819200     100.0%      0.0%      0.0%
 flops    84 x    26 x    62            307105344     100.0%      0.0%      0.0%
 flops    40 x    32 x    71            366428160     100.0%      0.0%      0.0%
 flops    84 x    32 x    71            384749568     100.0%      0.0%      0.0%
 flops    53 x    26 x    75            390663000     100.0%      0.0%      0.0%
 flops    22 x    32 x    62            395974656     100.0%      0.0%      0.0%
 flops    31 x    26 x    32            404418560     100.0%      0.0%      0.0%
 flops    31 x    32 x    26            404418560     100.0%      0.0%      0.0%
 flops     9 x     9 x    32            407151360     100.0%      0.0%      0.0%
 flops    22 x     9 x    26            415855440     100.0%      0.0%      0.0%
 flops     9 x    22 x    26            416576160     100.0%      0.0%      0.0%
 flops    32 x    32 x    75            425779200     100.0%      0.0%      0.0%
 flops    26 x    32 x    62            428972544     100.0%      0.0%      0.0%
 flops    32 x    26 x    62            428972544     100.0%      0.0%      0.0%
 flops    53 x    26 x    71            493103520     100.0%      0.0%      0.0%
 flops    32 x    32 x    71            537427968     100.0%      0.0%      0.0%
 flops    53 x    32 x    32            607846400     100.0%      0.0%      0.0%
 flops    31 x    26 x    75            639802800     100.0%      0.0%      0.0%
 flops    40 x    32 x    62            719953920     100.0%      0.0%      0.0%
 flops    84 x    32 x    62            755951616     100.0%      0.0%      0.0%
 flops     9 x    26 x     9            802701900     100.0%      0.0%      0.0%
 flops    31 x    26 x    71            807573312     100.0%      0.0%      0.0%
 flops    53 x    32 x    75            961632000     100.0%      0.0%      0.0%
 flops    53 x    26 x    62            968844240     100.0%      0.0%      0.0%
 flops    31 x    32 x    32            995491840     100.0%      0.0%      0.0%
 flops    22 x     9 x    32           1023644160     100.0%      0.0%      0.0%
 flops     9 x    22 x    32           1025418240     100.0%      0.0%      0.0%
 flops    32 x    32 x    62           1055932416     100.0%      0.0%      0.0%
 flops    22 x    22 x    26           1109908800     100.0%      0.0%      0.0%
 flops    53 x    32 x    71           1213793280     100.0%      0.0%      0.0%
 flops    31 x    32 x    75           1574899200     100.0%      0.0%      0.0%
 flops    31 x    26 x    62           1586710944     100.0%      0.0%      0.0%
 flops     9 x    32 x     9           1975881600     100.0%      0.0%      0.0%
 flops    31 x    32 x    71           1987872768     100.0%      0.0%      0.0%
 flops     9 x    26 x    22           2081079000     100.0%      0.0%      0.0%
 flops    22 x    26 x     9           2081079000     100.0%      0.0%      0.0%
 flops    53 x    32 x    62           2384847360     100.0%      0.0%      0.0%
 flops    22 x    22 x    32           2732083200     100.0%      0.0%      0.0%
 flops    31 x    32 x    62           3905750016     100.0%      0.0%      0.0%
 flops     9 x    32 x    22           5122656000     100.0%      0.0%      0.0%
 flops    22 x    32 x     9           5122656000     100.0%      0.0%      0.0%
 flops    22 x    26 x    22           5395390000     100.0%      0.0%      0.0%
 flops    22 x    32 x    22          13280960000     100.0%      0.0%      0.0%
 flops inhomo. stacks                  3974745600     100.0%      0.0%      0.0%
 flops total                        78.863681E+09     100.0%      0.0%      0.0%
 flops max/rank                      3.771362E+09     100.0%      0.0%      0.0%
 matmuls inhomo. stacks                     17136     100.0%      0.0%      0.0%
 matmuls total                            3205953     100.0%      0.0%      0.0%
 number of processed stacks               1427757     100.0%      0.0%      0.0%
 average stack size                                     2.2       0.0       0.0
 marketing flops                    85.702451E+09
 -------------------------------------------------------------------------------
 # multiplications                           1307
 max memory usage/rank               2.073571E+09
 # max total images/rank                        2
 # max 3D layers                                1
 # MPI messages exchanged                 4851584
 MPI messages size (bytes):
  total size                        51.850109E+09
  min size                           0.000000E+00
  max size                          85.200000E+03
  average size                      10.687254E+03
 MPI breakdown and total messages size (bytes):
             size <=      128             3677387                        0
       128 < size <=     8192               99165                713997408
      8192 < size <=    32768              432852               7767738720
     32768 < size <=   131072              642180              43367724120
    131072 < size <=  4194304                   0                        0
   4194304 < size <= 16777216                   0                        0
  16777216 < size                               0                        0
 -------------------------------------------------------------------------------

 *** WARNING in dbcsr_mm.F:294 :: Using a non-square number of MPI ranks ***
 *** might lead to poor performance. Used ranks: 128 Suggested: 121 256  ***

 -------------------------------------------------------------------------------
 -                                                                             -
 -                      DBCSR MESSAGE PASSING PERFORMANCE                      -
 -                                                                             -
 -------------------------------------------------------------------------------
 ROUTINE             CALLS      AVE VOLUME [Bytes]
 MP_Bcast              107                     12.
 MP_Allreduce         7067                      9.
 MP_Alltoall          5386                  27919.
 MP_ISend            82210                   7390.
 MP_IRecv            81748                   7019.
 -------------------------------------------------------------------------------

 -------------------------------------------------------------------------------
 -                                                                             -
 -                                GRID STATISTICS                              -
 -                                                                             -
 -------------------------------------------------------------------------------
 LP    KERNEL             BACKEND                              COUNT     PERCENT
 2     collocate ortho    REF                                1126269      18.85%
 2     integrate ortho    REF                                1106014      18.52%
 1     collocate ortho    REF                                 943978      15.80%
 1     integrate ortho    REF                                 870340      14.57%
 3     integrate ortho    REF                                 570062       9.54%
 3     collocate ortho    REF                                 500530       8.38%
 0     collocate ortho    REF                                 281245       4.71%
 0     integrate ortho    REF                                 249988       4.18%
 4     integrate ortho    REF                                 121240       2.03%
 4     collocate ortho    REF                                  73823       1.24%
 0     collocate general  REF                                  60928       1.02%
 1     integrate general  REF                                  60928       1.02%
 5     integrate ortho    REF                                   8201       0.14%
 -------------------------------------------------------------------------------

 MEMORY| Estimated peak process memory [MiB]                                2066

 -------------------------------------------------------------------------------
 -                                                                             -
 -                         MESSAGE PASSING PERFORMANCE                         -
 -                                                                             -
 -------------------------------------------------------------------------------

 ROUTINE             CALLS      AVE VOLUME [Bytes]
 MP_Group                8
 MP_Bcast             6942               10565486.
 MP_Allreduce         2477                1659312.
 MP_Sync               437
 MP_Alltoall          1344                9929722.
 MP_ISendRecv        52451                  38105.
 MP_Wait             64932
 MP_comm_split          21
 MP_ISend            11347                 231818.
 MP_IRecv            11172                 234911.
 MP_Recv                98                  51216.
 -------------------------------------------------------------------------------


 -------------------------------------------------------------------------------
 -                                                                             -
 -                           R E F E R E N C E S                               -
 -                                                                             -
 -------------------------------------------------------------------------------
 
 CP2K version 8.2, the CP2K developers group (2021).
 CP2K is freely available from https://www.cp2k.org/ .

 Kuehne,Thomas D.; Iannuzzi,Marcella; Del Ben,Mauro;
 Rybkin,Vladimir V.; Seewald,Patrick; Stein,Frederick; Laino,Teodoro;
 Khaliullin,Rustam Z.; Schuett,Ole; Schiffmann,Florian; Golze,Dorothea;
 Wilhelm,Jan; Chulkov,Sergey; Bani-Hashemian,Mohammad Hossein;
 Weber,Valery; Borstnik,Urban; Taillefumier,Mathieu;
 Jakobovits,Alice Shoshana; Lazzaro,Alfio; Pabst,Hans; Mueller,Tiziano;
 Schade,Robert; Guidon,Manuel; Andermatt,Samuel; Holmberg,Nico;
 Schenter,Gregory K.; Hehn,Anna; Bussy,Augustin; Belleflamme,Fabian;
 Tabacchi,Gloria; Gloess,Andreas; Lass,Michael; Bethune,Iain;
 Mundy,Christopher J.; Plessl,Christian; Watkins,Matt;
 VandeVondele,Joost; Krack,Matthias; Hutter,Juerg. 
 The Journal of Chemical Physics, 152 (19), (2020). 
 CP2K: An electronic structure and molecular dynamics software package -
 Quickstep: Efficient and accurate electronic structure calculations.
 https://doi.org/10.1063/5.0007045

 Schuett, Ole; Messmer, Peter; Hutter, Juerg; VandeVondele, Joost. 
 Electronic Structure Calculations on Graphics Processing Units, John
 Wiley & Sons, Ltd, 173-190 (2016). 
 GPU-Accelerated Sparse Matrix-Matrix Multiplication for
 Linear Scaling Density Functional Theory.
 https://doi.org/10.1002/9781118670712.ch8

 Borstnik, U; VandeVondele, J; Weber, V; Hutter, J. 
 PARALLEL COMPUTING, 40 (5-6), 47-58 (2014). 
 Sparse matrix multiplication: The distributed block-compressed sparse
 row library.
 https://doi.org/10.1016/j.parco.2014.03.012

 Hutter, J; Iannuzzi, M; Schiffmann, F; VandeVondele, J. 
 WIREs Comput Mol Sci., 4 (1), 15-25 (2014). 
 CP2K: atomistic simulations of condensed matter systems.
 https://doi.org/10.1002/wcms.1159

 Marek, A; Blum, V; Johanni, R; Havu, V; Lang, B; Auckenthaler, T;
 Heinecke, A; Bungartz, H; Lederer, H. 
 Journal of Physics: Condensed Matter, 26 (21), (2014). 
 The ELPA library: scalable parallel eigenvalue solutions for
 electronic structure
 theory and computational science.
 https://doi.org/10.1088/0953-8984/26/21/213201

 Guidon, M; Hutter, J; VandeVondele, J. 
 JOURNAL OF CHEMICAL THEORY AND COMPUTATION, 5 (11), 3010-3021 (2009). 
 Robust Periodic Hartree-Fock Exchange for Large-Scale Simulations Using
 Gaussian Basis Sets.
 https://doi.org/10.1021/ct900494g

 Guidon, M; Schiffmann, F; Hutter, J; VandeVondele, J. 
 JOURNAL OF CHEMICAL PHYSICS, 128 (21), 214104 (2008). 
 Ab initio molecular dynamics using hybrid density functionals.
 https://doi.org/10.1063/1.2931945

 Kuhne, TD; Krack, M; Mohamed, FR; Parrinello, M. 
 PHYSICAL REVIEW LETTERS, 98 (6), 066401 (2007). 
 Efficient and accurate Car-Parrinello-like approach to
 Born-Oppenheimer molecular dynamics.
 https://doi.org/10.1103/PhysRevLett.98.066401

 Laino, T; Mohamed, F; Laio, A; Parrinello, M. 
 JOURNAL OF CHEMICAL THEORY AND COMPUTATION, 2 (5), 1370-1378 (2006). 
 An efficient linear-scaling electrostatic coupling for treating
 periodic boundary conditions in QM/MM simulations.
 https://doi.org/10.1021/ct6001169

 Laino, T; Mohamed, F; Laio, A; Parrinello, M. 
 JOURNAL OF CHEMICAL THEORY AND COMPUTATION, 1 (6), 1176-1184 (2005). 
 An efficient real space multigrid QM/MM electrostatic coupling.
 https://doi.org/10.1021/ct050123f

 Krack, M. 
 THEORETICAL CHEMISTRY ACCOUNTS, 114 (1-3), 145-152 (2005). 
 Pseudopotentials for H to Kr optimized for gradient-corrected
 exchange-correlation functionals.
 https://doi.org/10.1007/s00214-005-0655-y

 VandeVondele, J; Krack, M; Mohamed, F; Parrinello, M; Chassaing, T;
 Hutter, J. COMPUTER PHYSICS COMMUNICATIONS, 167 (2), 103-128 (2005). 
 QUICKSTEP: Fast and accurate density functional calculations using a
 mixed Gaussian and plane waves approach.
 https://doi.org/10.1016/j.cpc.2004.12.014

 Frigo, M; Johnson, SG. 
 PROCEEDINGS OF THE IEEE, 93 (2), 216-231 (2005). 
 The design and implementation of FFTW3.
 https://doi.org/10.1109/JPROC.2004.840301

 Kolafa, J. 
 JOURNAL OF COMPUTATIONAL CHEMISTRY, 25 (3), 335-342 (2004). 
 Time-reversible always stable predictor-corrector method for molecular dynamics of polarizable molecules.
 https://doi.org/10.1002/jcc.10385

 VandeVondele, J; Hutter, J. 
 JOURNAL OF CHEMICAL PHYSICS, 118 (10), 4365-4369 (2003). 
 An efficient orbital transformation method for electronic structure
 calculations.
 https://doi.org/10.1063/1.1543154

 Hartwigsen, C; Goedecker, S; Hutter, J. 
 PHYSICAL REVIEW B, 58 (7), 3641-3662 (1998). 
 Relativistic separable dual-space Gaussian pseudopotentials from H to Rn.
 https://doi.org/10.1103/PhysRevB.58.3641

 Lippert, G; Hutter, J; Parrinello, M. 
 MOLECULAR PHYSICS, 92 (3), 477-487 (1997). 
 A hybrid Gaussian and plane wave density functional scheme.
 https://doi.org/10.1080/002689797170220

 Perdew, JP; Burke, K; Ernzerhof, M. 
 PHYSICAL REVIEW LETTERS, 77 (18), 3865-3868 (1996). 
 Generalized gradient approximation made simple.
 https://doi.org/10.1103/PhysRevLett.77.3865

 Goedecker, S; Teter, M; Hutter, J. 
 PHYSICAL REVIEW B, 54 (3), 1703-1710 (1996). 
 Separable dual-space Gaussian pseudopotentials.
 https://doi.org/10.1103/PhysRevB.54.1703

 ESSMANN, U; PERERA, L; BERKOWITZ, ML; DARDEN, T; LEE, H; PEDERSEN, LG. 
 JOURNAL OF CHEMICAL PHYSICS, 103 (19), 8577-8593 (1995). 
 A SMOOTH PARTICLE MESH EWALD METHOD.
 https://doi.org/10.1063/1.470117

 BLOCHL, PE. 
 JOURNAL OF CHEMICAL PHYSICS, 103 (17), 7422-7428 (1995). 
 ELECTROSTATIC DECOUPLING OF PERIODIC IMAGES OF PLANE-WAVE-EXPANDED
 DENSITIES AND DERIVED ATOMIC POINT CHARGES.
 https://doi.org/10.1063/1.470314


 -------------------------------------------------------------------------------
 -                                                                             -
 -                                T I M I N G                                  -
 -                                                                             -
 -------------------------------------------------------------------------------
 SUBROUTINE                       CALLS  ASD         SELF TIME        TOTAL TIME
                                MAXIMUM       AVERAGE  MAXIMUM  AVERAGE  MAXIMUM
 CP2K                                 1  1.0    0.192    0.208  230.872  230.872
 qs_mol_dyn_low                       1  2.0    0.007    0.008  188.411  190.192
 velocity_verlet                      6  3.0    0.024    0.027  156.004  156.028
 qs_forces                            7  3.9    0.001    0.001   90.820   90.821
 rebuild_ks_matrix                   63  8.5    0.000    0.000   79.621   79.633
 qs_ks_build_kohn_sham_matrix        63  9.5    0.010    0.012   79.621   79.632
 hfx_ks_matrix                       63 10.5    0.003    0.003   65.686   65.702
 qs_energies                          7  4.9    0.000    0.001   51.292   51.298
 qmmm_forces                          7  3.9    0.025    0.027   49.475   49.476
 scf_env_do_scf                       7  5.9    0.000    0.001   49.297   49.297
 qmmm_forces_with_gaussian            7  4.9    1.219    1.235   47.969   49.005
 qmmm_el_coupling                     7  3.9    0.000    0.000   40.404   40.872
 qmmm_elec_with_gaussian              7  4.9    1.122    1.186   40.402   40.870
 qmmm_env_create                      1  2.0    7.462    7.527   40.439   40.440
 qs_ks_update_qs_env                 63  7.8    0.001    0.002   40.171   40.181
 qs_ks_update_qs_env_forces           7  4.9    0.000    0.000   39.456   39.458
 derivatives_four_center              7  8.9    0.011    0.274   35.959   35.960
 derivatives_four_center_main         7  9.9    0.072    0.160   35.520   35.521
 derivatives_four_center_bin        791 10.9   33.466   35.479   33.466   35.479
 scf_env_do_scf_inner_loop           56  6.8    0.002    0.003   30.407   30.420
 fist_init                            1  3.0    0.000    0.000   29.813   29.813
 integrate_four_center               63 11.5    3.059    3.429   29.719   29.735
 pw_restrict_s3                      21  5.9    4.395    4.698   24.420   25.530
 pw_integral_ab                    2967  7.5   23.483   24.464   23.634   24.626
 integrate_four_center_main          63 12.5    0.071    0.112   23.091   23.365
 integrate_four_center_bin         4448 13.5   23.020   23.287   23.020   23.287
 init_scf_loop                        7  6.9    0.000    0.000   18.873   18.873
 qmmm_elec_with_gaussian:spline       7  5.9    0.000    0.000   18.130   18.587
 pw_prolongate_s3                    21  6.9    3.214    3.406   18.130   18.587
 force_field_control                  1  4.0    0.000    0.000   15.945   16.185
 mp_sum_dm3                          38  5.7   15.373   16.123   15.373   16.123
 qmmm_force_with_gaussian_low         7  5.9    0.000    0.000   15.814   16.048
 rdparm_amber_8                       2  6.5   12.742   13.045   15.013   15.317
 topology_control                     1  4.0    0.000    0.000   13.735   13.919
 qmmm_elec_with_gaussian_low          7  5.9    0.000    0.000   13.036   13.695
 qmmm_forces_gaussian_low_R           7  6.9    0.000    0.000   12.819   12.976
 qmmm_forces_with_gaussian_LG         7  7.9   12.819   12.976   12.819   12.976
 pw_transfer                       1337 12.0    0.110    0.125    9.862   10.485
 fft_wrap_pw1pw2                   1113 13.1    0.013    0.015    9.670   10.292
 qmmm_elec_gaussian_low_R             7  6.9    0.000    0.000    9.690   10.272
 qmmm_elec_with_gaussian_LG           7  7.9    9.690   10.272    9.690   10.272
 force_field_pack                     1  5.0    0.008    0.010    8.896    9.002
 fft_wrap_pw1pw2_200                707 14.4    0.644    0.766    8.390    8.972
 fft3d_ps                          1113 15.1    2.277    2.448    8.194    8.885
 connectivity_control                 2  4.0    0.000    0.001    8.194    8.197
 read_connectivity_amber              1  6.0    0.000    0.000    8.078    8.081
 qs_rho_update_rho                   63  7.9    0.001    0.001    7.381    7.390
 calculate_rho_elec                  63  8.9    0.062    0.075    7.381    7.389
 read_force_field_amber               1  5.0    0.012    0.012    6.947    7.252
 qs_vxc_create                       63 10.5    0.002    0.002    7.150    7.155
 xc_vxc_pw_create                    63 11.5    0.173    0.215    7.148    7.154
 mp_alltoall_z22v                  1113 17.1    5.453    6.334    5.453    6.334
 rs_pw_transfer                     546 11.8    0.010    0.011    5.469    6.091
 force_field_pack_splines             2  6.0    0.012    0.013    5.436    5.522
 mp_sum_dm                          768  5.2    4.302    5.351    4.302    5.351
 density_rs2pw                       63  9.9    0.003    0.003    4.698    5.313
 get_nonbond_storage                  2  7.0    0.192    0.198    5.221    5.305
 set_potparm_index                  602  8.0    0.282    0.285    5.029    5.113
 sum_up_and_integrate                63 10.5    0.034    0.042    4.900    4.911
 integrate_v_rspace                  63 11.5    0.002    0.002    4.866    4.880
 init_genpot                        604  9.0    4.762    4.846    4.762    4.846
 -------------------------------------------------------------------------------

 The number of warnings for this run is : 1
 
 -------------------------------------------------------------------------------
  **** **** ******  **  PROGRAM ENDED AT                 2021-09-01 13:43:23.620
 ***** ** ***  *** **   PROGRAM RAN ON                                 nid001643
 **    ****   ******    PROGRAM RAN BY                                     hjbio
 ***** **    ** ** **   PROGRAM PROCESS ID                                136932
  **** **  *******  **  PROGRAM STOPPED IN /lus/cls01095/work/d118/d118/hjbio/qm
                                           mm-benchmarking/archer2/CPU/cp2kMD/CB
                                           D_PHY-PBE0/6STEPS/4NODES/128CPN/4THRE
                                           ADS
