 DBCSR| CPU Multiplication driver                                           BLAS
 DBCSR| Multrec recursion limit                                              512
 DBCSR| Multiplication stack size                                           1000
 DBCSR| Maximum elements for images                                    UNLIMITED
 DBCSR| Multiplicative factor virtual images                                   1
 DBCSR| Use multiplication densification                                       T
 DBCSR| Multiplication size stacks                                             3
 DBCSR| Use memory pool for CPU allocation                                     F
 DBCSR| Number of 3D layers                                               SINGLE
 DBCSR| Use MPI memory allocation                                              F
 DBCSR| Use RMA algorithm                                                      F
 DBCSR| Use Communication thread                                               T
 DBCSR| Communication thread load                                             83
 DBCSR| MPI: My node id                                                        0
 DBCSR| MPI: Number of nodes                                                  64
 DBCSR| OMP: Current number of threads                                         2
 DBCSR| OMP: Max number of threads                                             2
 DBCSR| Split modifier for TAS multiplication algorithm                  1.0E+00


  **** **** ******  **  PROGRAM STARTED AT               2021-08-31 17:43:48.186
 ***** ** ***  *** **   PROGRAM STARTED ON                             nid001135
 **    ****   ******    PROGRAM STARTED BY                                 hjbio
 ***** **    ** ** **   PROGRAM PROCESS ID                                109755
  **** **  *******  **  PROGRAM STARTED IN /lus/cls01095/work/d118/d118/hjbio/qm
                                           mm-benchmarking/archer2/CPU/cp2kMD/CB
                                           D_PHY-PBE0/6STEPS/1NODES/128CPN/2THRE
                                           ADS

 CP2K| version string:                                          CP2K version 8.2
 CP2K| source code revision number:                                  git:310b7ab
 CP2K| cp2kflags: omp libint fftw3 libxc elpa parallel mpi3 scalapack plumed2   
 CP2K| is freely available from                            https://www.cp2k.org/
 CP2K| Program compiled at                          Thu 10 Jun 17:43:51 BST 2021
 CP2K| Program compiled on                                                 uan01
 CP2K| Program compiled for                                              ARCHER2
 CP2K| Data directory path              /work/d118/d118/hjbio/CP2K/cp2k-8.2/data
 CP2K| Input file name                                          CBD_PHY-cp2k.inp

 GLOBAL| Force Environment number                                              1
 GLOBAL| Basis set file name                                           HFX_BASIS
 GLOBAL| Potential file name                                           POTENTIAL
 GLOBAL| MM Potential file name                                     MM_POTENTIAL
 GLOBAL| Coordinate file name                                        CBD_PHY.pdb
 GLOBAL| Method name                                                        CP2K
 GLOBAL| Project name                                               CBD_PHY-PBE0
 GLOBAL| Run type                                                             MD
 GLOBAL| FFT library                                                       FFTW3
 GLOBAL| Diagonalization library                                            ELPA
 GLOBAL| Minimum number of eigenvectors for ELPA usage                        16
 GLOBAL| Orthonormality check for eigenvectors                          DISABLED
 GLOBAL| Matrix multiplication library                                    SCALAP
 GLOBAL| All-to-all communication in single precision                          F
 GLOBAL| FFTs using library dependent lengths                                  F
 GLOBAL| Grid backend                                                       AUTO
 GLOBAL| Global print level                                                  LOW
 GLOBAL| MPI I/O enabled                                                       T
 GLOBAL| Total number of message passing processes                            64
 GLOBAL| Number of threads for this process                                    2
 GLOBAL| This output is from process                                           0
 GLOBAL| CPU model name                          AMD EPYC 7742 64-Core Processor
 GLOBAL| CPUID                                                              1002

 MEMORY| system memory details [Kb]
 MEMORY|                        rank 0           min           max       average
 MEMORY| MemTotal            263568576     263568576     263568576     263568576
 MEMORY| MemFree             245438636     245438636     245438636     245438636
 MEMORY| Buffers                326480        326480        326480        326480
 MEMORY| Cached                3668052       3668052       3668052       3668052
 MEMORY| Slab                  1702956       1702956       1702956       1702956
 MEMORY| SReclaimable           235344        235344        235344        235344
 MEMORY| MemLikelyFree       249668512     249668512     249668512     249668512



                      ************* ******** ***********   
                     ************* **********************  
                     ****     **** ****      ***********   
                     ******** ****  *******     ****       
                     *******  ****   *******   ****        
                     ****     ****       ****  ****        
                     ****     **** **********  ****        
                      ****     **** ********    ****       
                     FRONTIERS IN SIMULATION TECHNOLOGY    
                                                           
                        C.J. Mundy, S. Balasubramanian,    
                     Ken Bagchi, J. Hutter, Ari Seitsonen  
                      IFW Kuo, T. Laino, J. VandeVondele   
                                 Version 1.0               

                                                           


 EWALD| Summation is done by:                                               SPME
 EWALD| Alpha parameter [       ANGSTROM^-1]                              0.4000
 EWALD| Real Space Cutoff [          ANGSTROM]                            8.4348
 EWALD| G-space max. Miller index                         80        80        80
 EWALD| Spline interpolation order                                             6

 FORCEFIELD| WARNING: A non Critical ForceField parameter is missing! CP2K GOES!
 FORCEFIELD| Non critical parameters are:Urey-Bradley,Torsions,Impropers, Opbends and 1-4
 FORCEFIELD| All missing parameters will not contribute to the potential energy!
 FORCEFIELD| Activate the print key FF_INFO to have a list of missing parameters

 CHARGE_INFO| Total Charge of the Classical System:                    -0.825808

 SPLINE_INFO| Generating 101926 splines for NONBONDED14 interactions 
              Due to 451 different atomic kinds
  ...10192  ...20384  ...30576  ...40768  ...50960  ...61152  ...71344  ...81536  ...91728  ...101920
 SPLINE_INFO| Number of unique splines computed:            301
 SPLINE_INFO| Done

 SPLINE_INFO| Generating 101926 splines for NONBONDED interactions 
              Due to 451 different atomic kinds
  ...10192  ...20384  ...30576  ...40768  ...50960  ...61152  ...71344  ...81536  ...91728  ...101920
 SPLINE_INFO| Number of unique splines computed:            301
 SPLINE_INFO| Done

 *******************************************************************************
 *******************************************************************************
 **                                                                           **
 **     #####                         ##              ##                      **
 **    ##   ##            ##          ##              ##                      **
 **   ##     ##                       ##            ######                    **
 **   ##     ##  ##   ##  ##   #####  ##  ##   ####   ##    #####    #####    **
 **   ##     ##  ##   ##  ##  ##      ## ##   ##      ##   ##   ##  ##   ##   **
 **   ##  ## ##  ##   ##  ##  ##      ####     ###    ##   ######   ######    **
 **    ##  ###   ##   ##  ##  ##      ## ##      ##   ##   ##       ##        **
 **     #######   #####   ##   #####  ##  ##  ####    ##    #####   ##        **
 **           ##                                                    ##        **
 **                                                                           **
 **                                                ... make the atoms dance   **
 **                                                                           **
 **            Copyright (C) by CP2K developers group (2000-2021)             **
 **                      J. Chem. Phys. 152, 194103 (2020)                    **
 **                                                                           **
 *******************************************************************************


 TOTAL NUMBERS AND MAXIMUM NUMBERS

  Total number of            - Atomic kinds:                                   5
                             - Atoms:                                         68
                             - Shell sets:                                   340
                             - Shells:                                       445
                             - Primitive Cartesian functions:                476
                             - Cartesian basis functions:                   1137
                             - Spherical basis functions:                   1067

  Maximum angular momentum of- Orbital basis functions:                        2
                             - Local part of the GTH pseudopotential:          2
                             - Non-local part of the GTH pseudopotential:      0


 SCF PARAMETERS         Density guess:                                   RESTART
                        --------------------------------------------------------
                        max_scf:                                              30
                        max_scf_history:                                       0
                        max_diis:                                              4
                        --------------------------------------------------------
                        eps_scf:                                        1.00E-06
                        eps_scf_history:                                0.00E+00
                        eps_diis:                                       1.00E-01
                        eps_eigval:                                     1.00E-05
                        --------------------------------------------------------
                        level_shift [a.u.]:                                 0.00
                        --------------------------------------------------------
                        Outer loop SCF in use 
                        No variables optimised in outer loop
                        eps_scf                                         1.00E-06
                        max_scf                                               20
                        No outer loop optimization
                        step_size                                       5.00E-01

 *******************************************************************************
 *******************************************************************************
 **                                                                           **
 **             #######  ##     ## ##     ## ##     ##                        **
 **            ##     ## ###   ### ###   ### ###   ###                        **
 **            ##     ## #### #### #### #### #### ####                        **
 **            ##     ## ## ### ## ## ### ## ## ### ##                        **
 **            ##  ## ## ##     ## ##     ## ##     ##                        **
 **            ##    ##  ##     ## ##     ## ##     ##  T.Laino and F.Mohamed **
 **             ##### ## ##     ## ##     ## ##     ##  2005 - 2015           **
 **                                                                           **
 **                                                     Calculation Started.. **
 *******************************************************************************
 *******************************************************************************

 MD_PAR| Molecular dynamics protocol (MD input parameters)
 MD_PAR| Ensemble type                                                       NVE
 MD_PAR| Number of time steps                                                  6
 MD_PAR| Time step [fs]                                                 1.000000
 MD_PAR| Temperature [K]                                              300.000000
 MD_PAR| Temperature tolerance [K]                                      0.000000
 MD_PAR| Print MD information every                                    1 step(s)
 MD_PAR| File type   Print frequency [steps]                          File names
 MD_PAR| Coordinates          1                           CBD_PHY-PBE0-pos-1.xyz
 MD_PAR| Velocities           1                           CBD_PHY-PBE0-vel-1.xyz
 MD_PAR| Energies             1                              CBD_PHY-PBE0-1.ener
 MD_PAR| Dump                20                           CBD_PHY-PBE0-1.restart

 ROT| Rotational analysis information
 ROT| Principal axes and moments of inertia [a.u.]
 ROT|                           1                   2                   3
 ROT| Eigenvalues      1.56283164001E+13   1.56407408488E+13   1.56663418804E+13
 ROT|      x              0.901637047331     -0.018153263569      0.432112362589
 ROT|      y              0.323714777231      0.690893927917     -0.646431994388
 ROT|      z             -0.286808957117      0.722728191915      0.628812040859
 ROT| Number of rotovibrational vectors                                        6

 DOF| Calculation of degrees of freedom
 DOF| Number of atoms                                                     167923
 DOF| Number of intramolecular constraints                                     0
 DOF| Number of intermolecular constraints                                     0
 DOF| Invariants (translations + rotations)                                    3
 DOF| Degrees of freedom                                                  503766

 DOF| Restraints information
 DOF| Number of intramolecular restraints                                      0
 DOF| Number of intermolecular restraints                                      0

 MD_VEL| Velocities initialization
 MD_VEL| Initial temperature [K]                                      300.000000
 MD_VEL| COM velocity            -0.0000000000     0.0000000000     0.0000000000

  Translating the system in order to center the QM fragment in the QM box.

 Number of electrons:                                                        180
 Number of occupied orbitals:                                                 90
 Number of molecular orbitals:                                                90

 Number of orbital functions:                                               1067
 Number of independent orbital functions:                                   1067

 Extrapolation method: initial_guess


 SCF WAVEFUNCTION OPTIMIZATION

  ----------------------------------- OT ---------------------------------------
  Minimizer      : DIIS                : direct inversion
                                         in the iterative subspace
                                         using   7 DIIS vectors
                                         safer DIIS on
  Preconditioner : FULL_ALL            : diagonalization, state selective
  Precond_solver : DEFAULT
  stepsize       :    0.15000000                  energy_gap     :    0.08000000
  eps_taylor     :   0.10000E-15                  max_taylor     :             4
  ----------------------------------- OT ---------------------------------------

  Step     Update method      Time    Convergence         Total energy    Change
  ------------------------------------------------------------------------------
  Decoupling Energy:                                               0.0370647021
  Recoupling Energy:                                              -0.0063741479
     1 OT DIIS     0.15E+00   11.7     0.00129057      -255.9257316521 -2.56E+02
  Decoupling Energy:                                               0.0370576004
  Recoupling Energy:                                              -0.0063740314
     2 OT DIIS     0.15E+00    2.0     0.00057761      -255.9419521977 -1.62E-02
  Decoupling Energy:                                               0.0369596417
  Recoupling Energy:                                              -0.0063730135
     3 OT DIIS     0.15E+00    2.0     0.00038348      -255.9451217318 -3.17E-03
  Decoupling Energy:                                               0.0369795470
  Recoupling Energy:                                              -0.0063732416
     4 OT DIIS     0.15E+00    2.0     0.00009866      -255.9458275768 -7.06E-04
  Decoupling Energy:                                               0.0369716948
  Recoupling Energy:                                              -0.0063731487
     5 OT DIIS     0.15E+00    2.0     0.00003992      -255.9458779686 -5.04E-05
  Decoupling Energy:                                               0.0369737640
  Recoupling Energy:                                              -0.0063731649
     6 OT DIIS     0.15E+00    2.0     0.00001793      -255.9458894170 -1.14E-05
  Decoupling Energy:                                               0.0369741808
  Recoupling Energy:                                              -0.0063731680
     7 OT DIIS     0.15E+00    2.0     0.00000621      -255.9458922938 -2.88E-06
  Decoupling Energy:                                               0.0369727127
  Recoupling Energy:                                              -0.0063731518
     8 OT DIIS     0.15E+00    2.0     0.00000242      -255.9458926328 -3.39E-07
  Decoupling Energy:                                               0.0369731061
  Recoupling Energy:                                              -0.0063731556
     9 OT DIIS     0.15E+00    2.0     0.00000111      -255.9458926822 -4.94E-08
  Decoupling Energy:                                               0.0369728228
  Recoupling Energy:                                              -0.0063731526
    10 OT DIIS     0.15E+00    2.0     0.00000048      -255.9458926924 -1.02E-08

  *** SCF run converged in    10 steps ***


  Electronic density on regular grids:       -179.9999999999        0.0000000001
  Core density on regular grids:              180.9999999999       -0.0000000001
  Total charge density on r-space grids:        1.0000000000
  Total charge density g-space grids:           1.0000000000

  Overlap energy of the core charge distribution:               0.00001951532734
  Self energy of the core charge distribution:               -615.71576003586028
  Core Hamiltonian energy:                                    191.01363220817836
  Hartree energy:                                             248.20663869016050
  Exchange-correlation energy:                                -61.38430761263369
  Hartree-Fock Exchange energy:                               -18.10821018492830
  QM/MM Electrostatic energy:                                   0.04209472735318

  Total energy:                                              -255.94589269240282

  outer SCF iter =    1 RMS gradient =   0.48E-06 energy =       -255.9458926924
  outer SCF loop converged in   1 iterations or   10 steps

  Decoupling Energy:                                               0.0369728028
  Recoupling Energy:                                              -0.0063731523

 ENERGY| Total FORCE_EVAL ( QMMM ) energy [a.u.]:          -1088.110859624500790

 MD_INI| MD initialization
 MD_INI| Potential energy [hartree]                          -0.108811085962E+04
 MD_INI| Total kinetic energy [hartree]                       0.239300084734E+03
 MD_INI| QM kinetic energy [hartree]                          0.106639360339E+00
 MD_INI| Total temperature [K]                                        300.000000
 MD_INI| QM temperature [K]                                           330.137318
 MD_INI| Cell volume [bohr^3]                                 1.137316355424E+07
 MD_INI| Cell volume [ang^3]                                  1.685328937712E+06
 MD_INI| Cell lengths [bohr]      2.24884969E+02  2.24884969E+02  2.24884969E+02
 MD_INI| Cell lengths [ang]       1.19004000E+02  1.19004000E+02  1.19004000E+02
 MD_INI| Cell angles [deg]        9.00000000E+01  9.00000000E+01  9.00000000E+01

  Translating the system in order to center the QM fragment in the QM box.

 Number of electrons:                                                        180
 Number of occupied orbitals:                                                 90
 Number of molecular orbitals:                                                90

 Number of orbital functions:                                               1067
 Number of independent orbital functions:                                   1067

 Extrapolation method: ASPC


 SCF WAVEFUNCTION OPTIMIZATION

  ----------------------------------- OT ---------------------------------------
  Minimizer      : DIIS                : direct inversion
                                         in the iterative subspace
                                         using   7 DIIS vectors
                                         safer DIIS on
  Preconditioner : FULL_ALL            : diagonalization, state selective
  Precond_solver : DEFAULT
  stepsize       :    0.15000000                  energy_gap     :    0.08000000
  eps_taylor     :   0.10000E-15                  max_taylor     :             4
  ----------------------------------- OT ---------------------------------------

  Step     Update method      Time    Convergence         Total energy    Change
  ------------------------------------------------------------------------------
  Decoupling Energy:                                               0.0370014667
  Recoupling Energy:                                              -0.0063734172
     1 OT DIIS     0.15E+00    8.6     0.00075899      -255.7182133821 -2.56E+02
  Decoupling Energy:                                               0.0370082386
  Recoupling Energy:                                              -0.0063735355
     2 OT DIIS     0.15E+00    2.0     0.00032685      -255.7237312617 -5.52E-03
  Decoupling Energy:                                               0.0370087412
  Recoupling Energy:                                              -0.0063735590
     3 OT DIIS     0.15E+00    2.0     0.00019068      -255.7247685926 -1.04E-03
  Decoupling Energy:                                               0.0370199883
  Recoupling Energy:                                              -0.0063736817
     4 OT DIIS     0.15E+00    2.0     0.00006054      -255.7249610297 -1.92E-04
  Decoupling Energy:                                               0.0370216763
  Recoupling Energy:                                              -0.0063737045
     5 OT DIIS     0.15E+00    2.0     0.00001954      -255.7249775945 -1.66E-05
  Decoupling Energy:                                               0.0370210006
  Recoupling Energy:                                              -0.0063736984
     6 OT DIIS     0.15E+00    2.0     0.00000817      -255.7249798528 -2.26E-06
  Decoupling Energy:                                               0.0370221930
  Recoupling Energy:                                              -0.0063737124
     7 OT DIIS     0.15E+00    2.0     0.00000308      -255.7249803149 -4.62E-07
  Decoupling Energy:                                               0.0370222383
  Recoupling Energy:                                              -0.0063737132
     8 OT DIIS     0.15E+00    2.0     0.00000136      -255.7249803921 -7.72E-08
  Decoupling Energy:                                               0.0370224659
  Recoupling Energy:                                              -0.0063737159
     9 OT DIIS     0.15E+00    2.0     0.00000058      -255.7249804078 -1.57E-08

  *** SCF run converged in     9 steps ***


  Electronic density on regular grids:       -180.0000000000        0.0000000000
  Core density on regular grids:              180.9999999999       -0.0000000001
  Total charge density on r-space grids:        0.9999999999
  Total charge density g-space grids:           0.9999999999

  Overlap energy of the core charge distribution:               0.00002422739645
  Self energy of the core charge distribution:               -615.71576003586028
  Core Hamiltonian energy:                                    191.21094976934205
  Hartree energy:                                             248.07774829289477
  Exchange-correlation energy:                                -61.42683491290602
  Hartree-Fock Exchange energy:                               -18.12283148604620
  QM/MM Electrostatic energy:                                   0.25172373733851

  Total energy:                                              -255.72498040784072

  outer SCF iter =    1 RMS gradient =   0.58E-06 energy =       -255.7249804078
  outer SCF loop converged in   1 iterations or    9 steps

  Decoupling Energy:                                               0.0370224945
  Recoupling Energy:                                              -0.0063737164

 ENERGY| Total FORCE_EVAL ( QMMM ) energy [a.u.]:          -1059.962356577471382

 MD| ***************************************************************************
 MD| Step number                                                               1
 MD| Time [fs]                                                          1.000000
 MD| Conserved quantity [hartree]                            -0.841461427193E+03
 MD| ---------------------------------------------------------------------------
 MD|                                          Instantaneous             Averages
 MD| CPU time per MD step [s]                    160.715926           160.715926
 MD| Energy drift per atom [K]           0.138202490510E+02   0.000000000000E+00
 MD| Potential energy [hartree]         -0.105996235658E+04  -0.105996235658E+04
 MD| Total kinetic energy [hartree]      0.218500929384E+03   0.218500929384E+03
 MD| QM kinetic energy [hartree]         0.121347259187E+00   0.121347259187E+00
 MD| Total temperature [K]                       273.925013           273.925013
 MD| QM temperature [K]                          375.670471           375.670471
 MD| ***************************************************************************

  Translating the system in order to center the QM fragment in the QM box.

 Number of electrons:                                                        180
 Number of occupied orbitals:                                                 90
 Number of molecular orbitals:                                                90

 Number of orbital functions:                                               1067
 Number of independent orbital functions:                                   1067

 Extrapolation method: ASPC


 SCF WAVEFUNCTION OPTIMIZATION

  ----------------------------------- OT ---------------------------------------
  Minimizer      : DIIS                : direct inversion
                                         in the iterative subspace
                                         using   7 DIIS vectors
                                         safer DIIS on
  Preconditioner : FULL_ALL            : diagonalization, state selective
  Precond_solver : DEFAULT
  stepsize       :    0.15000000                  energy_gap     :    0.08000000
  eps_taylor     :   0.10000E-15                  max_taylor     :             4
  ----------------------------------- OT ---------------------------------------

  Step     Update method      Time    Convergence         Total energy    Change
  ------------------------------------------------------------------------------
  Decoupling Energy:                                               0.0370781913
  Recoupling Energy:                                              -0.0063743357
     1 OT DIIS     0.15E+00    8.5     0.00029256      -255.3622523223 -2.55E+02
  Decoupling Energy:                                               0.0370714502
  Recoupling Energy:                                              -0.0063742686
     2 OT DIIS     0.15E+00    2.0     0.00012380      -255.3630881461 -8.36E-04
  Decoupling Energy:                                               0.0370747227
  Recoupling Energy:                                              -0.0063743003
     3 OT DIIS     0.15E+00    2.0     0.00005679      -255.3632554784 -1.67E-04
  Decoupling Energy:                                               0.0370720806
  Recoupling Energy:                                              -0.0063742776
     4 OT DIIS     0.15E+00    2.0     0.00001757      -255.3632742719 -1.88E-05
  Decoupling Energy:                                               0.0370725514
  Recoupling Energy:                                              -0.0063742816
     5 OT DIIS     0.15E+00    2.0     0.00000682      -255.3632757988 -1.53E-06
  Decoupling Energy:                                               0.0370729683
  Recoupling Energy:                                              -0.0063742867
     6 OT DIIS     0.15E+00    2.0     0.00000313      -255.3632760565 -2.58E-07
  Decoupling Energy:                                               0.0370729532
  Recoupling Energy:                                              -0.0063742866
     7 OT DIIS     0.15E+00    2.0     0.00000106      -255.3632761174 -6.10E-08
  Decoupling Energy:                                               0.0370730110
  Recoupling Energy:                                              -0.0063742873
     8 OT DIIS     0.15E+00    2.0     0.00000048      -255.3632761276 -1.02E-08

  *** SCF run converged in     8 steps ***


  Electronic density on regular grids:       -180.0000000000       -0.0000000000
  Core density on regular grids:              180.9999999999       -0.0000000001
  Total charge density on r-space grids:        0.9999999998
  Total charge density g-space grids:           0.9999999998

  Overlap energy of the core charge distribution:               0.00005088932561
  Self energy of the core charge distribution:               -615.71576003586028
  Core Hamiltonian energy:                                    191.44418208715012
  Hartree energy:                                             247.94137127927561
  Exchange-correlation energy:                                -61.47332486538342
  Hartree-Fock Exchange energy:                               -18.13880678705158
  QM/MM Electrostatic energy:                                   0.57901130494435

  Total energy:                                              -255.36327612759959

  outer SCF iter =    1 RMS gradient =   0.48E-06 energy =       -255.3632761276
  outer SCF loop converged in   1 iterations or    8 steps

  Decoupling Energy:                                               0.0370730278
  Recoupling Energy:                                              -0.0063742875

 ENERGY| Total FORCE_EVAL ( QMMM ) energy [a.u.]:          -1061.235329483713940

 MD| ***************************************************************************
 MD| Step number                                                               2
 MD| Time [fs]                                                          2.000000
 MD| Conserved quantity [hartree]                            -0.842817775155E+03
 MD| ---------------------------------------------------------------------------
 MD|                                          Instantaneous             Averages
 MD| CPU time per MD step [s]                     74.843218           117.779572
 MD| Energy drift per atom [K]           0.112696734903E+02   0.563483674516E+01
 MD| Potential energy [hartree]         -0.106123532948E+04  -0.106059884303E+04
 MD| Total kinetic energy [hartree]      0.218417554329E+03   0.218459241857E+03
 MD| QM kinetic energy [hartree]         0.111577804596E+00   0.116462531892E+00
 MD| Total temperature [K]                       273.820489           273.872751
 MD| QM temperature [K]                          345.425902           360.548186
 MD| ***************************************************************************

  Translating the system in order to center the QM fragment in the QM box.

 Number of electrons:                                                        180
 Number of occupied orbitals:                                                 90
 Number of molecular orbitals:                                                90

 Number of orbital functions:                                               1067
 Number of independent orbital functions:                                   1067

 Extrapolation method: ASPC


 SCF WAVEFUNCTION OPTIMIZATION

  ----------------------------------- OT ---------------------------------------
  Minimizer      : DIIS                : direct inversion
                                         in the iterative subspace
                                         using   7 DIIS vectors
                                         safer DIIS on
  Preconditioner : FULL_ALL            : diagonalization, state selective
  Precond_solver : DEFAULT
  stepsize       :    0.15000000                  energy_gap     :    0.08000000
  eps_taylor     :   0.10000E-15                  max_taylor     :             4
  ----------------------------------- OT ---------------------------------------

  Step     Update method      Time    Convergence         Total energy    Change
  ------------------------------------------------------------------------------
  Decoupling Energy:                                               0.0371231482
  Recoupling Energy:                                              -0.0063748340
     1 OT DIIS     0.15E+00    8.5     0.00057317      -254.8840255819 -2.55E+02
  Decoupling Energy:                                               0.0371264428
  Recoupling Energy:                                              -0.0063748794
     2 OT DIIS     0.15E+00    2.0     0.00022569      -254.8871521536 -3.13E-03
  Decoupling Energy:                                               0.0371270244
  Recoupling Energy:                                              -0.0063748839
     3 OT DIIS     0.15E+00    2.0     0.00008226      -254.8877076979 -5.56E-04
  Decoupling Energy:                                               0.0371223622
  Recoupling Energy:                                              -0.0063748376
     4 OT DIIS     0.15E+00    2.0     0.00002754      -254.8877578990 -5.02E-05
  Decoupling Energy:                                               0.0371233101
  Recoupling Energy:                                              -0.0063748478
     5 OT DIIS     0.15E+00    2.0     0.00001039      -254.8877617021 -3.80E-06
  Decoupling Energy:                                               0.0371231645
  Recoupling Energy:                                              -0.0063748451
     6 OT DIIS     0.15E+00    2.0     0.00000440      -254.8877622889 -5.87E-07
  Decoupling Energy:                                               0.0371230848
  Recoupling Energy:                                              -0.0063748446
     7 OT DIIS     0.15E+00    2.0     0.00000136      -254.8877623795 -9.05E-08
  Decoupling Energy:                                               0.0371230862
  Recoupling Energy:                                              -0.0063748447
     8 OT DIIS     0.15E+00    2.0     0.00000059      -254.8877623903 -1.09E-08

  *** SCF run converged in     8 steps ***


  Electronic density on regular grids:       -180.0000000003       -0.0000000003
  Core density on regular grids:              180.9999999999       -0.0000000001
  Total charge density on r-space grids:        0.9999999996
  Total charge density g-space grids:           0.9999999996

  Overlap energy of the core charge distribution:               0.00005124495388
  Self energy of the core charge distribution:               -615.71576003586028
  Core Hamiltonian energy:                                    191.49124840293740
  Hartree energy:                                             247.90728833023627
  Exchange-correlation energy:                                -61.48094479292182
  Hartree-Fock Exchange energy:                               -18.14140158048962
  QM/MM Electrostatic energy:                                   1.05175604080059

  Total energy:                                              -254.88776239034362

  outer SCF iter =    1 RMS gradient =   0.59E-06 energy =       -254.8877623903
  outer SCF loop converged in   1 iterations or    8 steps

  Decoupling Energy:                                               0.0371230866
  Recoupling Energy:                                              -0.0063748446

 ENERGY| Total FORCE_EVAL ( QMMM ) energy [a.u.]:          -1082.045340833622049

 MD| ***************************************************************************
 MD| Step number                                                               3
 MD| Time [fs]                                                          3.000000
 MD| Conserved quantity [hartree]                            -0.846392351624E+03
 MD| ---------------------------------------------------------------------------
 MD|                                          Instantaneous             Averages
 MD| CPU time per MD step [s]                     75.648990           103.736044
 MD| Energy drift per atom [K]           0.454777937233E+01   0.527248428755E+01
 MD| Potential energy [hartree]         -0.108204534083E+04  -0.106774767563E+04
 MD| Total kinetic energy [hartree]      0.235652989210E+03   0.224190490974E+03
 MD| QM kinetic energy [hartree]         0.117355005571E+00   0.116760023118E+00
 MD| Total temperature [K]                       295.427797           281.057766
 MD| QM temperature [K]                          363.311133           361.469169
 MD| ***************************************************************************

  Translating the system in order to center the QM fragment in the QM box.

 Number of electrons:                                                        180
 Number of occupied orbitals:                                                 90
 Number of molecular orbitals:                                                90

 Number of orbital functions:                                               1067
 Number of independent orbital functions:                                   1067

 Extrapolation method: ASPC


 SCF WAVEFUNCTION OPTIMIZATION

  ----------------------------------- OT ---------------------------------------
  Minimizer      : DIIS                : direct inversion
                                         in the iterative subspace
                                         using   7 DIIS vectors
                                         safer DIIS on
  Preconditioner : FULL_ALL            : diagonalization, state selective
  Precond_solver : DEFAULT
  stepsize       :    0.15000000                  energy_gap     :    0.08000000
  eps_taylor     :   0.10000E-15                  max_taylor     :             4
  ----------------------------------- OT ---------------------------------------

  Step     Update method      Time    Convergence         Total energy    Change
  ------------------------------------------------------------------------------
  Decoupling Energy:                                               0.0371654541
  Recoupling Energy:                                              -0.0063753281
     1 OT DIIS     0.15E+00    8.5     0.00026637      -254.3373029171 -2.54E+02
  Decoupling Energy:                                               0.0371741370
  Recoupling Energy:                                              -0.0063754088
     2 OT DIIS     0.15E+00    2.0     0.00010683      -254.3379921505 -6.89E-04
  Decoupling Energy:                                               0.0371692722
  Recoupling Energy:                                              -0.0063753584
     3 OT DIIS     0.15E+00    2.0     0.00003999      -254.3381200488 -1.28E-04
  Decoupling Energy:                                               0.0371714144
  Recoupling Energy:                                              -0.0063753807
     4 OT DIIS     0.15E+00    2.0     0.00001263      -254.3381299377 -9.89E-06
  Decoupling Energy:                                               0.0371702739
  Recoupling Energy:                                              -0.0063753695
     5 OT DIIS     0.15E+00    2.0     0.00000537      -254.3381307726 -8.35E-07
  Decoupling Energy:                                               0.0371705254
  Recoupling Energy:                                              -0.0063753714
     6 OT DIIS     0.15E+00    2.0     0.00000188      -254.3381309094 -1.37E-07
  Decoupling Energy:                                               0.0371705386
  Recoupling Energy:                                              -0.0063753717
     7 OT DIIS     0.15E+00    2.0     0.00000064      -254.3381309279 -1.86E-08

  *** SCF run converged in     7 steps ***


  Electronic density on regular grids:       -179.9999999999        0.0000000001
  Core density on regular grids:              180.9999999999       -0.0000000001
  Total charge density on r-space grids:        1.0000000000
  Total charge density g-space grids:           1.0000000000

  Overlap energy of the core charge distribution:               0.00002358472817
  Self energy of the core charge distribution:               -615.71576003586028
  Core Hamiltonian energy:                                    191.34734073187005
  Hartree energy:                                             247.97608440374586
  Exchange-correlation energy:                                -61.44937134321415
  Hartree-Fock Exchange energy:                               -18.13041902963246
  QM/MM Electrostatic energy:                                   1.63397076043602

  Total energy:                                              -254.33813092792676

  outer SCF iter =    1 RMS gradient =   0.64E-06 energy =       -254.3381309279
  outer SCF loop converged in   1 iterations or    7 steps

  Decoupling Energy:                                               0.0371704701
  Recoupling Energy:                                              -0.0063753710

 ENERGY| Total FORCE_EVAL ( QMMM ) energy [a.u.]:          -1079.714052688572792

 MD| ***************************************************************************
 MD| Step number                                                               4
 MD| Time [fs]                                                          4.000000
 MD| Conserved quantity [hartree]                            -0.842113598048E+03
 MD| ---------------------------------------------------------------------------
 MD|                                          Instantaneous             Averages
 MD| CPU time per MD step [s]                     72.965520            96.043413
 MD| Energy drift per atom [K]           0.125938594437E+02   0.710282807659E+01
 MD| Potential energy [hartree]         -0.107971405269E+04  -0.107073926990E+04
 MD| Total kinetic energy [hartree]      0.237600454640E+03   0.227542981891E+03
 MD| QM kinetic energy [hartree]         0.148326544964E+00   0.124651653580E+00
 MD| Total temperature [K]                       297.869248           285.260637
 MD| QM temperature [K]                          459.193750           385.900314
 MD| ***************************************************************************

  Translating the system in order to center the QM fragment in the QM box.

 Number of electrons:                                                        180
 Number of occupied orbitals:                                                 90
 Number of molecular orbitals:                                                90

 Number of orbital functions:                                               1067
 Number of independent orbital functions:                                   1067

 Extrapolation method: ASPC


 SCF WAVEFUNCTION OPTIMIZATION

  ----------------------------------- OT ---------------------------------------
  Minimizer      : DIIS                : direct inversion
                                         in the iterative subspace
                                         using   7 DIIS vectors
                                         safer DIIS on
  Preconditioner : FULL_ALL            : diagonalization, state selective
  Precond_solver : DEFAULT
  stepsize       :    0.15000000                  energy_gap     :    0.08000000
  eps_taylor     :   0.10000E-15                  max_taylor     :             4
  ----------------------------------- OT ---------------------------------------

  Step     Update method      Time    Convergence         Total energy    Change
  ------------------------------------------------------------------------------
  Decoupling Energy:                                               0.0372102810
  Recoupling Energy:                                              -0.0063758458
     1 OT DIIS     0.15E+00    8.6     0.00032086      -253.7449353377 -2.54E+02
  Decoupling Energy:                                               0.0372072488
  Recoupling Energy:                                              -0.0063758023
     2 OT DIIS     0.15E+00    2.0     0.00013141      -253.7458492940 -9.14E-04
  Decoupling Energy:                                               0.0372093288
  Recoupling Energy:                                              -0.0063758212
     3 OT DIIS     0.15E+00    2.0     0.00006228      -253.7460072420 -1.58E-04
  Decoupling Energy:                                               0.0372088395
  Recoupling Energy:                                              -0.0063758157
     4 OT DIIS     0.15E+00    2.0     0.00002429      -253.7460383184 -3.11E-05
  Decoupling Energy:                                               0.0372096117
  Recoupling Energy:                                              -0.0063758219
     5 OT DIIS     0.15E+00    2.0     0.00000525      -253.7460408419 -2.52E-06
  Decoupling Energy:                                               0.0372092994
  Recoupling Energy:                                              -0.0063758193
     6 OT DIIS     0.15E+00    2.0     0.00000251      -253.7460409855 -1.44E-07
  Decoupling Energy:                                               0.0372093001
  Recoupling Energy:                                              -0.0063758191
     7 OT DIIS     0.15E+00    2.0     0.00000089      -253.7460410176 -3.21E-08

  *** SCF run converged in     7 steps ***


  Electronic density on regular grids:       -180.0000000000       -0.0000000000
  Core density on regular grids:              180.9999999999       -0.0000000001
  Total charge density on r-space grids:        0.9999999998
  Total charge density g-space grids:           0.9999999998

  Overlap energy of the core charge distribution:               0.00001841799679
  Self energy of the core charge distribution:               -615.71576003586028
  Core Hamiltonian energy:                                    191.22475682851456
  Hartree energy:                                             248.04794093650219
  Exchange-correlation energy:                                -61.41799280312563
  Hartree-Fock Exchange energy:                               -18.11952335373284
  QM/MM Electrostatic energy:                                   2.23451899205899

  Total energy:                                              -253.74604101764623

  outer SCF iter =    1 RMS gradient =   0.89E-06 energy =       -253.7460410176
  outer SCF loop converged in   1 iterations or    7 steps

  Decoupling Energy:                                               0.0372093271
  Recoupling Energy:                                              -0.0063758194

 ENERGY| Total FORCE_EVAL ( QMMM ) energy [a.u.]:          -1094.307010705251287

 MD| ***************************************************************************
 MD| Step number                                                               5
 MD| Time [fs]                                                          5.000000
 MD| Conserved quantity [hartree]                            -0.848389416780E+03
 MD| ---------------------------------------------------------------------------
 MD|                                          Instantaneous             Averages
 MD| CPU time per MD step [s]                     73.591271            91.552985
 MD| Energy drift per atom [K]           0.792352500891E+00   0.584073296145E+01
 MD| Potential energy [hartree]         -0.109430701071E+04  -0.107545281806E+04
 MD| Total kinetic energy [hartree]      0.245917593925E+03   0.231217904298E+03
 MD| QM kinetic energy [hartree]         0.157563750854E+00   0.131234073035E+00
 MD| Total temperature [K]                       308.296080           289.867726
 MD| QM temperature [K]                          487.790568           406.278365
 MD| ***************************************************************************

  Translating the system in order to center the QM fragment in the QM box.

 Number of electrons:                                                        180
 Number of occupied orbitals:                                                 90
 Number of molecular orbitals:                                                90

 Number of orbital functions:                                               1067
 Number of independent orbital functions:                                   1067

 Extrapolation method: ASPC


 SCF WAVEFUNCTION OPTIMIZATION

  ----------------------------------- OT ---------------------------------------
  Minimizer      : DIIS                : direct inversion
                                         in the iterative subspace
                                         using   7 DIIS vectors
                                         safer DIIS on
  Preconditioner : FULL_ALL            : diagonalization, state selective
  Precond_solver : DEFAULT
  stepsize       :    0.15000000                  energy_gap     :    0.08000000
  eps_taylor     :   0.10000E-15                  max_taylor     :             4
  ----------------------------------- OT ---------------------------------------

  Step     Update method      Time    Convergence         Total energy    Change
  ------------------------------------------------------------------------------
  Decoupling Energy:                                               0.0372439319
  Recoupling Energy:                                              -0.0063762160
     1 OT DIIS     0.15E+00    8.6     0.00048928      -253.1925213374 -2.53E+02
  Decoupling Energy:                                               0.0372420226
  Recoupling Energy:                                              -0.0063762275
     2 OT DIIS     0.15E+00    2.0     0.00019205      -253.1946665744 -2.15E-03
  Decoupling Energy:                                               0.0372396545
  Recoupling Energy:                                              -0.0063761947
     3 OT DIIS     0.15E+00    2.0     0.00008078      -253.1950231309 -3.57E-04
  Decoupling Energy:                                               0.0372398645
  Recoupling Energy:                                              -0.0063761987
     4 OT DIIS     0.15E+00    2.0     0.00002257      -253.1950820599 -5.89E-05
  Decoupling Energy:                                               0.0372388109
  Recoupling Energy:                                              -0.0063761872
     5 OT DIIS     0.15E+00    2.0     0.00000841      -253.1950846451 -2.59E-06
  Decoupling Energy:                                               0.0372394855
  Recoupling Energy:                                              -0.0063761928
     6 OT DIIS     0.15E+00    2.0     0.00000291      -253.1950850046 -3.60E-07
  Decoupling Energy:                                               0.0372392410
  Recoupling Energy:                                              -0.0063761906
     7 OT DIIS     0.15E+00    2.0     0.00000087      -253.1950850459 -4.13E-08

  *** SCF run converged in     7 steps ***


  Electronic density on regular grids:       -180.0000000000       -0.0000000000
  Core density on regular grids:              180.9999999999       -0.0000000001
  Total charge density on r-space grids:        0.9999999998
  Total charge density g-space grids:           0.9999999998

  Overlap energy of the core charge distribution:               0.00001843307378
  Self energy of the core charge distribution:               -615.71576003586028
  Core Hamiltonian energy:                                    191.21897547325767
  Hartree energy:                                             248.05851642255882
  Exchange-correlation energy:                                -61.40903425062003
  Hartree-Fock Exchange energy:                               -18.11645628235646
  QM/MM Electrostatic energy:                                   2.76865519406683

  Total energy:                                              -253.19508504587964

  outer SCF iter =    1 RMS gradient =   0.87E-06 energy =       -253.1950850459
  outer SCF loop converged in   1 iterations or    7 steps

  Decoupling Energy:                                               0.0372392292
  Recoupling Energy:                                              -0.0063761903

 ENERGY| Total FORCE_EVAL ( QMMM ) energy [a.u.]:          -1057.339965600051983

 MD| ***************************************************************************
 MD| Step number                                                               6
 MD| Time [fs]                                                          6.000000
 MD| Conserved quantity [hartree]                            -0.842900325337E+03
 MD| ---------------------------------------------------------------------------
 MD|                                          Instantaneous             Averages
 MD| CPU time per MD step [s]                     72.879500            88.440737
 MD| Energy drift per atom [K]           0.111144401115E+02   0.671968415313E+01
 MD| Potential energy [hartree]         -0.105733996560E+04  -0.107243400931E+04
 MD| Total kinetic energy [hartree]      0.214439640263E+03   0.228421526959E+03
 MD| QM kinetic energy [hartree]         0.141131941204E+00   0.132883717729E+00
 MD| Total temperature [K]                       268.833553           286.362030
 MD| QM temperature [K]                          436.920481           411.385384
 MD| ***************************************************************************

 -------------------------------------------------------------------------------
 -                                                                             -
 -                                DBCSR STATISTICS                             -
 -                                                                             -
 -------------------------------------------------------------------------------
 COUNTER                                    TOTAL       BLAS       SMM       ACC
 flops     9 x    26 x    26              2810808     100.0%      0.0%      0.0%
 flops     9 x    32 x    32              8515584     100.0%      0.0%      0.0%
 flops    26 x    26 x    26             13709280     100.0%      0.0%      0.0%
 flops    22 x    26 x    26             15615600     100.0%      0.0%      0.0%
 flops    22 x    26 x   128             18450432     100.0%      0.0%      0.0%
 flops    22 x    26 x    32             20500480     100.0%      0.0%      0.0%
 flops    22 x    32 x    26             20500480     100.0%      0.0%      0.0%
 flops    84 x    26 x    26             31799040     100.0%      0.0%      0.0%
 flops    44 x    26 x    26             33313280     100.0%      0.0%      0.0%
 flops    26 x    26 x    32             33745920     100.0%      0.0%      0.0%
 flops    26 x    32 x    26             33745920     100.0%      0.0%      0.0%
 flops    32 x    26 x    26             33745920     100.0%      0.0%      0.0%
 flops    93 x    26 x    26             35206080     100.0%      0.0%      0.0%
 flops    22 x    26 x   137             39495456     100.0%      0.0%      0.0%
 flops    26 x    26 x   128             39975936     100.0%      0.0%      0.0%
 flops   115 x    26 x    26             43534400     100.0%      0.0%      0.0%
 flops    22 x    32 x   128             45416448     100.0%      0.0%      0.0%
 flops    84 x    26 x   128             70447104     100.0%      0.0%      0.0%
 flops    22 x    32 x    32             72540160     100.0%      0.0%      0.0%
 flops    44 x    26 x   128             73801728     100.0%      0.0%      0.0%
 flops    93 x    26 x   128             77995008     100.0%      0.0%      0.0%
 flops    84 x    26 x    32             78274560     100.0%      0.0%      0.0%
 flops    84 x    32 x    26             78274560     100.0%      0.0%      0.0%
 flops    44 x    26 x    32             82001920     100.0%      0.0%      0.0%
 flops    44 x    32 x    26             82001920     100.0%      0.0%      0.0%
 flops    32 x    32 x    26             83066880     100.0%      0.0%      0.0%
 flops    26 x    32 x    32             83066880     100.0%      0.0%      0.0%
 flops    32 x    26 x    32             83066880     100.0%      0.0%      0.0%
 flops    26 x    26 x   137             85573488     100.0%      0.0%      0.0%
 flops    93 x    26 x    32             86661120     100.0%      0.0%      0.0%
 flops    93 x    32 x    26             86661120     100.0%      0.0%      0.0%
 flops    22 x    26 x   133             95855760     100.0%      0.0%      0.0%
 flops   115 x    26 x   128             96445440     100.0%      0.0%      0.0%
 flops    22 x    32 x   137             97219584     100.0%      0.0%      0.0%
 flops    26 x    32 x   128             98402304     100.0%      0.0%      0.0%
 flops    32 x    26 x   128             98402304     100.0%      0.0%      0.0%
 flops   115 x    26 x    32            107161600     100.0%      0.0%      0.0%
 flops   115 x    32 x    26            107161600     100.0%      0.0%      0.0%
 flops    62 x    26 x    26            117353600     100.0%      0.0%      0.0%
 flops    71 x    26 x    26            134388800     100.0%      0.0%      0.0%
 flops    84 x    26 x   137            150800832     100.0%      0.0%      0.0%
 flops    44 x    26 x   137            157981824     100.0%      0.0%      0.0%
 flops     9 x     9 x    26            165405240     100.0%      0.0%      0.0%
 flops    93 x    26 x   137            166958064     100.0%      0.0%      0.0%
 flops    84 x    32 x   128            173408256     100.0%      0.0%      0.0%
 flops    44 x    32 x   128            181665792     100.0%      0.0%      0.0%
 flops    93 x    32 x   128            191987712     100.0%      0.0%      0.0%
 flops    84 x    32 x    32            192675840     100.0%      0.0%      0.0%
 flops    44 x    32 x    32            201850880     100.0%      0.0%      0.0%
 flops    32 x    32 x    32            204472320     100.0%      0.0%      0.0%
 flops   115 x    26 x   137            206453520     100.0%      0.0%      0.0%
 flops    26 x    26 x   133            207687480     100.0%      0.0%      0.0%
 flops    26 x    32 x   137            210642432     100.0%      0.0%      0.0%
 flops    32 x    26 x   137            210642432     100.0%      0.0%      0.0%
 flops    93 x    32 x    32            213319680     100.0%      0.0%      0.0%
 flops    22 x    32 x   133            235952640     100.0%      0.0%      0.0%
 flops   115 x    32 x   128            237404160     100.0%      0.0%      0.0%
 flops    32 x    32 x   128            242221056     100.0%      0.0%      0.0%
 flops    62 x    26 x   128            259983360     100.0%      0.0%      0.0%
 flops   115 x    32 x    32            263782400     100.0%      0.0%      0.0%
 flops    62 x    32 x    26            288870400     100.0%      0.0%      0.0%
 flops    62 x    26 x    32            288870400     100.0%      0.0%      0.0%
 flops    71 x    26 x   128            297722880     100.0%      0.0%      0.0%
 flops    71 x    32 x    26            330803200     100.0%      0.0%      0.0%
 flops    71 x    26 x    32            330803200     100.0%      0.0%      0.0%
 flops    84 x    26 x   133            365994720     100.0%      0.0%      0.0%
 flops    84 x    32 x   137            371202048     100.0%      0.0%      0.0%
 flops    44 x    26 x   133            383423040     100.0%      0.0%      0.0%
 flops    44 x    32 x   137            388878336     100.0%      0.0%      0.0%
 flops    93 x    26 x   133            405208440     100.0%      0.0%      0.0%
 flops     9 x     9 x    32            407151360     100.0%      0.0%      0.0%
 flops    93 x    32 x   137            410973696     100.0%      0.0%      0.0%
 flops    22 x     9 x    26            415855440     100.0%      0.0%      0.0%
 flops     9 x    22 x    26            416576160     100.0%      0.0%      0.0%
 flops   115 x    26 x   133            501064200     100.0%      0.0%      0.0%
 flops   115 x    32 x   137            508193280     100.0%      0.0%      0.0%
 flops    26 x    32 x   133            511230720     100.0%      0.0%      0.0%
 flops    32 x    26 x   133            511230720     100.0%      0.0%      0.0%
 flops    32 x    32 x   137            518504448     100.0%      0.0%      0.0%
 flops    62 x    26 x   137            556526880     100.0%      0.0%      0.0%
 flops    71 x    26 x   137            637313040     100.0%      0.0%      0.0%
 flops    62 x    32 x   128            639959040     100.0%      0.0%      0.0%
 flops    62 x    32 x    32            711065600     100.0%      0.0%      0.0%
 flops    71 x    32 x   128            732856320     100.0%      0.0%      0.0%
 flops     9 x    26 x     9            802701900     100.0%      0.0%      0.0%
 flops    71 x    32 x    32            814284800     100.0%      0.0%      0.0%
 flops    84 x    32 x   133            900910080     100.0%      0.0%      0.0%
 flops    44 x    32 x   133            943810560     100.0%      0.0%      0.0%
 flops    93 x    32 x   133            997436160     100.0%      0.0%      0.0%
 flops    22 x     9 x    32           1023644160     100.0%      0.0%      0.0%
 flops     9 x    22 x    32           1025418240     100.0%      0.0%      0.0%
 flops    22 x    22 x    26           1109908800     100.0%      0.0%      0.0%
 flops   115 x    32 x   133           1233388800     100.0%      0.0%      0.0%
 flops    32 x    32 x   133           1258414080     100.0%      0.0%      0.0%
 flops    62 x    26 x   133           1350694800     100.0%      0.0%      0.0%
 flops    62 x    32 x   137           1369912320     100.0%      0.0%      0.0%
 flops    71 x    26 x   133           1546763400     100.0%      0.0%      0.0%
 flops    71 x    32 x   137           1568770560     100.0%      0.0%      0.0%
 flops     9 x    32 x     9           1975881600     100.0%      0.0%      0.0%
 flops    22 x    26 x     9           2081079000     100.0%      0.0%      0.0%
 flops     9 x    26 x    22           2081079000     100.0%      0.0%      0.0%
 flops    22 x    22 x    32           2732083200     100.0%      0.0%      0.0%
 flops    62 x    32 x   133           3324787200     100.0%      0.0%      0.0%
 flops    71 x    32 x   133           3807417600     100.0%      0.0%      0.0%
 flops    22 x    32 x     9           5122656000     100.0%      0.0%      0.0%
 flops     9 x    32 x    22           5122656000     100.0%      0.0%      0.0%
 flops    22 x    26 x    22           5395390000     100.0%      0.0%      0.0%
 flops    22 x    32 x    22          13280960000     100.0%      0.0%      0.0%
 flops inhomo. stacks                           0       0.0%      0.0%      0.0%
 flops total                        78.421527E+09     100.0%      0.0%      0.0%
 flops max/rank                      3.655448E+09     100.0%      0.0%      0.0%
 matmuls inhomo. stacks                         0       0.0%      0.0%      0.0%
 matmuls total                            3037554     100.0%      0.0%      0.0%
 number of processed stacks                455415     100.0%      0.0%      0.0%
 average stack size                                     6.7       0.0       0.0
 marketing flops                    85.671830E+09
 -------------------------------------------------------------------------------
 # multiplications                           1286
 max memory usage/rank               2.097349E+09
 # max total images/rank                        1
 # max 3D layers                                1
 # MPI messages exchanged                 1152256
 MPI messages size (bytes):
  total size                        26.071108E+09
  min size                           0.000000E+00
  max size                         150.152000E+03
  average size                      22.626143E+03
 MPI breakdown and total messages size (bytes):
             size <=      128              750561                        0
       128 < size <=     8192               66927                481883808
      8192 < size <=    32768               83300               2394641760
     32768 < size <=   131072              118727               4280966144
    131072 < size <=  4194304              132741              18914201880
   4194304 < size <= 16777216                   0                        0
  16777216 < size                               0                        0
 -------------------------------------------------------------------------------
 -                                                                             -
 -                      DBCSR MESSAGE PASSING PERFORMANCE                      -
 -                                                                             -
 -------------------------------------------------------------------------------
 ROUTINE             CALLS      AVE VOLUME [Bytes]
 MP_Bcast              109                     12.
 MP_Allreduce         6966                      9.
 MP_Alltoall          5344                  12862.
 MP_ISend            41124                  13424.
 MP_IRecv            41124                  12857.
 -------------------------------------------------------------------------------

 -------------------------------------------------------------------------------
 -                                                                             -
 -                                GRID STATISTICS                              -
 -                                                                             -
 -------------------------------------------------------------------------------
 LP    KERNEL             BACKEND                              COUNT     PERCENT
 2     collocate ortho    REF                                1126269      19.05%
 2     integrate ortho    REF                                1106014      18.71%
 1     collocate ortho    REF                                 943978      15.97%
 1     integrate ortho    REF                                 870340      14.72%
 3     integrate ortho    REF                                 570062       9.64%
 3     collocate ortho    REF                                 500530       8.47%
 0     collocate ortho    REF                                 281245       4.76%
 0     integrate ortho    REF                                 249988       4.23%
 4     integrate ortho    REF                                 121240       2.05%
 4     collocate ortho    REF                                  73823       1.25%
 0     collocate general  REF                                  30464       0.52%
 1     integrate general  REF                                  30464       0.52%
 5     integrate ortho    REF                                   8201       0.14%
 -------------------------------------------------------------------------------

 MEMORY| Estimated peak process memory [MiB]                                2081

 -------------------------------------------------------------------------------
 -                                                                             -
 -                         MESSAGE PASSING PERFORMANCE                         -
 -                                                                             -
 -------------------------------------------------------------------------------

 ROUTINE             CALLS      AVE VOLUME [Bytes]
 MP_Group                8
 MP_Bcast             6942               10565479.
 MP_Allreduce         2477                1659282.
 MP_Sync               437
 MP_Alltoall          1344               17978175.
 MP_ISendRecv        26019                  64276.
 MP_Wait             33670
 MP_comm_split          21
 MP_ISend             6475                 556371.
 MP_IRecv             6468                 556115.
 MP_Recv                49                 102432.
 -------------------------------------------------------------------------------


 -------------------------------------------------------------------------------
 -                                                                             -
 -                           R E F E R E N C E S                               -
 -                                                                             -
 -------------------------------------------------------------------------------
 
 CP2K version 8.2, the CP2K developers group (2021).
 CP2K is freely available from https://www.cp2k.org/ .

 Kuehne,Thomas D.; Iannuzzi,Marcella; Del Ben,Mauro;
 Rybkin,Vladimir V.; Seewald,Patrick; Stein,Frederick; Laino,Teodoro;
 Khaliullin,Rustam Z.; Schuett,Ole; Schiffmann,Florian; Golze,Dorothea;
 Wilhelm,Jan; Chulkov,Sergey; Bani-Hashemian,Mohammad Hossein;
 Weber,Valery; Borstnik,Urban; Taillefumier,Mathieu;
 Jakobovits,Alice Shoshana; Lazzaro,Alfio; Pabst,Hans; Mueller,Tiziano;
 Schade,Robert; Guidon,Manuel; Andermatt,Samuel; Holmberg,Nico;
 Schenter,Gregory K.; Hehn,Anna; Bussy,Augustin; Belleflamme,Fabian;
 Tabacchi,Gloria; Gloess,Andreas; Lass,Michael; Bethune,Iain;
 Mundy,Christopher J.; Plessl,Christian; Watkins,Matt;
 VandeVondele,Joost; Krack,Matthias; Hutter,Juerg. 
 The Journal of Chemical Physics, 152 (19), (2020). 
 CP2K: An electronic structure and molecular dynamics software package -
 Quickstep: Efficient and accurate electronic structure calculations.
 https://doi.org/10.1063/5.0007045

 Schuett, Ole; Messmer, Peter; Hutter, Juerg; VandeVondele, Joost. 
 Electronic Structure Calculations on Graphics Processing Units, John
 Wiley & Sons, Ltd, 173-190 (2016). 
 GPU-Accelerated Sparse Matrix-Matrix Multiplication for
 Linear Scaling Density Functional Theory.
 https://doi.org/10.1002/9781118670712.ch8

 Borstnik, U; VandeVondele, J; Weber, V; Hutter, J. 
 PARALLEL COMPUTING, 40 (5-6), 47-58 (2014). 
 Sparse matrix multiplication: The distributed block-compressed sparse
 row library.
 https://doi.org/10.1016/j.parco.2014.03.012

 Hutter, J; Iannuzzi, M; Schiffmann, F; VandeVondele, J. 
 WIREs Comput Mol Sci., 4 (1), 15-25 (2014). 
 CP2K: atomistic simulations of condensed matter systems.
 https://doi.org/10.1002/wcms.1159

 Marek, A; Blum, V; Johanni, R; Havu, V; Lang, B; Auckenthaler, T;
 Heinecke, A; Bungartz, H; Lederer, H. 
 Journal of Physics: Condensed Matter, 26 (21), (2014). 
 The ELPA library: scalable parallel eigenvalue solutions for
 electronic structure
 theory and computational science.
 https://doi.org/10.1088/0953-8984/26/21/213201

 Guidon, M; Hutter, J; VandeVondele, J. 
 JOURNAL OF CHEMICAL THEORY AND COMPUTATION, 5 (11), 3010-3021 (2009). 
 Robust Periodic Hartree-Fock Exchange for Large-Scale Simulations Using
 Gaussian Basis Sets.
 https://doi.org/10.1021/ct900494g

 Guidon, M; Schiffmann, F; Hutter, J; VandeVondele, J. 
 JOURNAL OF CHEMICAL PHYSICS, 128 (21), 214104 (2008). 
 Ab initio molecular dynamics using hybrid density functionals.
 https://doi.org/10.1063/1.2931945

 Kuhne, TD; Krack, M; Mohamed, FR; Parrinello, M. 
 PHYSICAL REVIEW LETTERS, 98 (6), 066401 (2007). 
 Efficient and accurate Car-Parrinello-like approach to
 Born-Oppenheimer molecular dynamics.
 https://doi.org/10.1103/PhysRevLett.98.066401

 Laino, T; Mohamed, F; Laio, A; Parrinello, M. 
 JOURNAL OF CHEMICAL THEORY AND COMPUTATION, 2 (5), 1370-1378 (2006). 
 An efficient linear-scaling electrostatic coupling for treating
 periodic boundary conditions in QM/MM simulations.
 https://doi.org/10.1021/ct6001169

 Laino, T; Mohamed, F; Laio, A; Parrinello, M. 
 JOURNAL OF CHEMICAL THEORY AND COMPUTATION, 1 (6), 1176-1184 (2005). 
 An efficient real space multigrid QM/MM electrostatic coupling.
 https://doi.org/10.1021/ct050123f

 Krack, M. 
 THEORETICAL CHEMISTRY ACCOUNTS, 114 (1-3), 145-152 (2005). 
 Pseudopotentials for H to Kr optimized for gradient-corrected
 exchange-correlation functionals.
 https://doi.org/10.1007/s00214-005-0655-y

 VandeVondele, J; Krack, M; Mohamed, F; Parrinello, M; Chassaing, T;
 Hutter, J. COMPUTER PHYSICS COMMUNICATIONS, 167 (2), 103-128 (2005). 
 QUICKSTEP: Fast and accurate density functional calculations using a
 mixed Gaussian and plane waves approach.
 https://doi.org/10.1016/j.cpc.2004.12.014

 Frigo, M; Johnson, SG. 
 PROCEEDINGS OF THE IEEE, 93 (2), 216-231 (2005). 
 The design and implementation of FFTW3.
 https://doi.org/10.1109/JPROC.2004.840301

 Kolafa, J. 
 JOURNAL OF COMPUTATIONAL CHEMISTRY, 25 (3), 335-342 (2004). 
 Time-reversible always stable predictor-corrector method for molecular dynamics of polarizable molecules.
 https://doi.org/10.1002/jcc.10385

 VandeVondele, J; Hutter, J. 
 JOURNAL OF CHEMICAL PHYSICS, 118 (10), 4365-4369 (2003). 
 An efficient orbital transformation method for electronic structure
 calculations.
 https://doi.org/10.1063/1.1543154

 Hartwigsen, C; Goedecker, S; Hutter, J. 
 PHYSICAL REVIEW B, 58 (7), 3641-3662 (1998). 
 Relativistic separable dual-space Gaussian pseudopotentials from H to Rn.
 https://doi.org/10.1103/PhysRevB.58.3641

 Lippert, G; Hutter, J; Parrinello, M. 
 MOLECULAR PHYSICS, 92 (3), 477-487 (1997). 
 A hybrid Gaussian and plane wave density functional scheme.
 https://doi.org/10.1080/002689797170220

 Perdew, JP; Burke, K; Ernzerhof, M. 
 PHYSICAL REVIEW LETTERS, 77 (18), 3865-3868 (1996). 
 Generalized gradient approximation made simple.
 https://doi.org/10.1103/PhysRevLett.77.3865

 Goedecker, S; Teter, M; Hutter, J. 
 PHYSICAL REVIEW B, 54 (3), 1703-1710 (1996). 
 Separable dual-space Gaussian pseudopotentials.
 https://doi.org/10.1103/PhysRevB.54.1703

 ESSMANN, U; PERERA, L; BERKOWITZ, ML; DARDEN, T; LEE, H; PEDERSEN, LG. 
 JOURNAL OF CHEMICAL PHYSICS, 103 (19), 8577-8593 (1995). 
 A SMOOTH PARTICLE MESH EWALD METHOD.
 https://doi.org/10.1063/1.470117

 BLOCHL, PE. 
 JOURNAL OF CHEMICAL PHYSICS, 103 (17), 7422-7428 (1995). 
 ELECTROSTATIC DECOUPLING OF PERIODIC IMAGES OF PLANE-WAVE-EXPANDED
 DENSITIES AND DERIVED ATOMIC POINT CHARGES.
 https://doi.org/10.1063/1.470314


 -------------------------------------------------------------------------------
 -                                                                             -
 -                                T I M I N G                                  -
 -                                                                             -
 -------------------------------------------------------------------------------
 SUBROUTINE                       CALLS  ASD         SELF TIME        TOTAL TIME
                                MAXIMUM       AVERAGE  MAXIMUM  AVERAGE  MAXIMUM
 CP2K                                 1  1.0    0.435    0.456  579.074  579.074
 qs_mol_dyn_low                       1  2.0    0.034    0.037  531.659  533.209
 velocity_verlet                      6  3.0    0.065    0.067  446.978  447.019
 qs_forces                            7  3.9    0.006    0.007  316.142  316.143
 rebuild_ks_matrix                   63  8.5    0.001    0.001  293.262  293.273
 qs_ks_build_kohn_sham_matrix        63  9.5    0.022    0.024  293.261  293.272
 hfx_ks_matrix                       63 10.5    0.005    0.005  239.590  239.621
 qs_energies                          7  4.9    0.005    0.006  165.314  165.325
 scf_env_do_scf                       7  5.9    0.000    0.002  161.740  161.741
 qs_ks_update_qs_env_forces           7  4.9    0.000    0.000  150.664  150.665
 qs_ks_update_qs_env                 63  7.8    0.001    0.001  142.604  142.614
 derivatives_four_center              7  8.9    0.020    0.290  138.109  138.110
 derivatives_four_center_main         7  9.9    0.237    0.692  137.609  137.611
 derivatives_four_center_bin        484 10.9  133.596  136.761  133.596  136.761
 qmmm_forces                          7  3.9    0.062    0.064  117.147  117.150
 qmmm_forces_with_gaussian            7  4.9    2.412    2.444  114.696  116.588
 integrate_four_center               63 11.5    3.129    3.661  101.469  101.501
 scf_env_do_scf_inner_loop           56  6.8    0.005    0.006   98.922   98.935
 integrate_four_center_main          63 12.5    0.188    0.343   92.096   94.098
 integrate_four_center_bin         4087 13.5   91.908   93.965   91.908   93.965
 qmmm_el_coupling                     7  3.9    0.000    0.001   90.493   90.753
 qmmm_elec_with_gaussian              7  4.9    1.888    2.015   90.482   90.742
 qmmm_force_with_gaussian_low         7  5.9    0.000    0.000   61.406   63.101
 init_scf_loop                        7  6.9    0.003    0.004   62.801   62.801
 qmmm_forces_gaussian_low_R           7  6.9    0.000    0.000   51.438   52.950
 qmmm_forces_with_gaussian_LG         7  7.9   51.438   52.950   51.438   52.950
 qmmm_elec_with_gaussian_low          7  5.9    0.000    0.000   44.289   46.605
 qmmm_env_create                      1  2.0    7.921    8.064   45.384   45.386
 pw_transfer                       1337 12.0    0.134    0.166   39.880   41.529
 pw_restrict_s3                      21  5.9    9.252    9.424   40.324   40.713
 fft_wrap_pw1pw2                   1113 13.1    0.015    0.018   38.821   40.453
 fft_wrap_pw1pw2_200                707 14.4    4.634    4.794   38.161   39.689
 qmmm_elec_gaussian_low_R             7  6.9    0.000    0.001   37.306   39.593
 qmmm_elec_with_gaussian_LG           7  7.9   37.306   39.593   37.306   39.593
 pw_integral_ab                    2967  7.5   35.411   36.526   35.533   36.633
 fist_init                            1  3.0    0.021    0.023   33.170   33.170
 qs_vxc_create                       63 10.5    0.004    0.004   32.391   32.396
 xc_vxc_pw_create                    63 11.5    0.528    0.660   32.388   32.392
 qmmm_elec_with_gaussian:spline       7  5.9    0.000    0.000   29.786   30.046
 pw_prolongate_s3                    21  6.9    6.843    6.978   29.786   30.046
 fft3d_ps                          1113 15.1   17.066   17.393   28.038   29.786
 mp_sum_dm3                          38  5.7   25.090   26.259   25.090   26.259
 qs_rho_update_rho                   63  7.9    0.002    0.002   18.867   18.875
 calculate_rho_elec                  63  8.9    0.117    0.118   18.865   18.874
 force_field_control                  1  4.0    0.000    0.002   17.278   17.431
 rdparm_amber_8                       2  6.5   12.748   12.889   16.558   16.634
 density_rs2pw                       63  9.9    0.004    0.004   14.786   16.297
 xc_rho_set_and_dset_create          63 12.5    0.320    0.329   14.683   16.135
 topology_control                     1  4.0    0.005    0.006   15.737   15.964
 rs_pw_transfer                     546 11.8    0.011    0.013   12.723   14.213
 sum_up_and_integrate                63 10.5    0.152    0.172   13.180   13.194
 integrate_v_rspace                  63 11.5    0.003    0.004   13.028   13.046
 -------------------------------------------------------------------------------

 The number of warnings for this run is : 0
 
 -------------------------------------------------------------------------------
  **** **** ******  **  PROGRAM ENDED AT                 2021-08-31 17:53:28.295
 ***** ** ***  *** **   PROGRAM RAN ON                                 nid001135
 **    ****   ******    PROGRAM RAN BY                                     hjbio
 ***** **    ** ** **   PROGRAM PROCESS ID                                109755
  **** **  *******  **  PROGRAM STOPPED IN /lus/cls01095/work/d118/d118/hjbio/qm
                                           mm-benchmarking/archer2/CPU/cp2kMD/CB
                                           D_PHY-PBE0/6STEPS/1NODES/128CPN/2THRE
                                           ADS
