 DBCSR| CPU Multiplication driver                                           BLAS
 DBCSR| Multrec recursion limit                                              512
 DBCSR| Multiplication stack size                                           1000
 DBCSR| Maximum elements for images                                    UNLIMITED
 DBCSR| Multiplicative factor virtual images                                   1
 DBCSR| Use multiplication densification                                       T
 DBCSR| Multiplication size stacks                                             3
 DBCSR| Use memory pool for CPU allocation                                     F
 DBCSR| Number of 3D layers                                               SINGLE
 DBCSR| Use MPI memory allocation                                              F
 DBCSR| Use RMA algorithm                                                      F
 DBCSR| Use Communication thread                                               T
 DBCSR| Communication thread load                                             60
 DBCSR| MPI: My node id                                                        0
 DBCSR| MPI: Number of nodes                                                  32
 DBCSR| OMP: Current number of threads                                         8
 DBCSR| OMP: Max number of threads                                             8
 DBCSR| Split modifier for TAS multiplication algorithm                  1.0E+00


  **** **** ******  **  PROGRAM STARTED AT               2021-10-20 17:52:35.233
 ***** ** ***  *** **   PROGRAM STARTED ON                             nid001172
 **    ****   ******    PROGRAM STARTED BY                                 hjbio
 ***** **    ** ** **   PROGRAM PROCESS ID                                 21293
  **** **  *******  **  PROGRAM STARTED IN /lus/cls01095/work/d118/d118/hjbio/qm
                                           mm-benchmarking/archer2/CPU/cp2kMD/MQ
                                           AE-B3LYP-large/6STEPS/2NODES/128CPN/8
                                           THREADS

 CP2K| version string:                                          CP2K version 8.2
 CP2K| source code revision number:                                  git:310b7ab
 CP2K| cp2kflags: omp libint fftw3 libxc elpa parallel mpi3 scalapack plumed2   
 CP2K| is freely available from                            https://www.cp2k.org/
 CP2K| Program compiled at                          Thu 10 Jun 17:43:51 BST 2021
 CP2K| Program compiled on                                                 uan01
 CP2K| Program compiled for                                              ARCHER2
 CP2K| Data directory path              /work/d118/d118/hjbio/CP2K/cp2k-8.2/data
 CP2K| Input file name                                             mqae-cp2k.inp

 GLOBAL| Force Environment number                                              1
 GLOBAL| Basis set file name                                     EMSL_BASIS_SETS
 GLOBAL| Potential file name                                           POTENTIAL
 GLOBAL| MM Potential file name                                     MM_POTENTIAL
 GLOBAL| Coordinate file name                                           mqae.pdb
 GLOBAL| Method name                                                        CP2K
 GLOBAL| Project name                                           MQAE-B3LYP-large
 GLOBAL| Run type                                                             MD
 GLOBAL| FFT library                                                       FFTW3
 GLOBAL| Diagonalization library                                            ELPA
 GLOBAL| Minimum number of eigenvectors for ELPA usage                        16
 GLOBAL| Orthonormality check for eigenvectors                          DISABLED
 GLOBAL| Matrix multiplication library                                    SCALAP
 GLOBAL| All-to-all communication in single precision                          F
 GLOBAL| FFTs using library dependent lengths                                  F
 GLOBAL| Grid backend                                                       AUTO
 GLOBAL| Global print level                                                  LOW
 GLOBAL| MPI I/O enabled                                                       T
 GLOBAL| Total number of message passing processes                            32
 GLOBAL| Number of threads for this process                                    8
 GLOBAL| This output is from process                                           0
 GLOBAL| CPU model name                          AMD EPYC 7742 64-Core Processor
 GLOBAL| CPUID                                                              1002

 MEMORY| system memory details [Kb]
 MEMORY|                        rank 0           min           max       average
 MEMORY| MemTotal            263568576     263568576     263568576     263568576
 MEMORY| MemFree             251739972     251739972     252137744     251938858
 MEMORY| Buffers                306624        155152        306624        230888
 MEMORY| Cached                1716728       1204988       1716728       1460858
 MEMORY| Slab                  1954684       1954684       2138888       2046786
 MEMORY| SReclaimable           258672        258672        347844        303258
 MEMORY| MemLikelyFree       254021996     253845728     254021996     253933862



                      ************* ******** ***********   
                     ************* **********************  
                     ****     **** ****      ***********   
                     ******** ****  *******     ****       
                     *******  ****   *******   ****        
                     ****     ****       ****  ****        
                     ****     **** **********  ****        
                      ****     **** ********    ****       
                     FRONTIERS IN SIMULATION TECHNOLOGY    
                                                           
                        C.J. Mundy, S. Balasubramanian,    
                     Ken Bagchi, J. Hutter, Ari Seitsonen  
                      IFW Kuo, T. Laino, J. VandeVondele   
                                 Version 1.0               

                                                           


 EWALD| Summation is done by:                                               SPME
 EWALD| Alpha parameter [       ANGSTROM^-1]                              0.4000
 EWALD| Real Space Cutoff [          ANGSTROM]                            8.4348
 EWALD| G-space max. Miller index                         80        80        80
 EWALD| Spline interpolation order                                             6

 FORCEFIELD| WARNING: A non Critical ForceField parameter is missing! CP2K GOES!
 FORCEFIELD| Non critical parameters are:Urey-Bradley,Torsions,Impropers, Opbends and 1-4
 FORCEFIELD| All missing parameters will not contribute to the potential energy!
 FORCEFIELD| Activate the print key FF_INFO to have a list of missing parameters

 CHARGE_INFO| Total Charge of the Classical System:                     0.000000

 SPLINE_INFO| Generating 465 splines for NONBONDED14 interactions 
              Due to 30 different atomic kinds
  ...46  ...92  ...138  ...184  ...230  ...276  ...322  ...368  ...414  ...460
 SPLINE_INFO| Number of unique splines computed:            22
 SPLINE_INFO| Done

 SPLINE_INFO| Generating 465 splines for NONBONDED interactions 
              Due to 30 different atomic kinds
  ...46  ...92  ...138  ...184  ...230  ...276  ...322  ...368  ...414  ...460
 SPLINE_INFO| Number of unique splines computed:            22
 SPLINE_INFO| Done

 *******************************************************************************
 *******************************************************************************
 **                                                                           **
 **     #####                         ##              ##                      **
 **    ##   ##            ##          ##              ##                      **
 **   ##     ##                       ##            ######                    **
 **   ##     ##  ##   ##  ##   #####  ##  ##   ####   ##    #####    #####    **
 **   ##     ##  ##   ##  ##  ##      ## ##   ##      ##   ##   ##  ##   ##   **
 **   ##  ## ##  ##   ##  ##  ##      ####     ###    ##   ######   ######    **
 **    ##  ###   ##   ##  ##  ##      ## ##      ##   ##   ##       ##        **
 **     #######   #####   ##   #####  ##  ##  ####    ##    #####   ##        **
 **           ##                                                    ##        **
 **                                                                           **
 **                                                ... make the atoms dance   **
 **                                                                           **
 **            Copyright (C) by CP2K developers group (2000-2021)             **
 **                      J. Chem. Phys. 152, 194103 (2020)                    **
 **                                                                           **
 *******************************************************************************


 TOTAL NUMBERS AND MAXIMUM NUMBERS

  Total number of            - Atomic kinds:                                   4
                             - Atoms:                                         34
                             - Shell sets:                                   120
                             - Shells:                                       156
                             - Primitive Cartesian functions:                278
                             - Cartesian basis functions:                    350
                             - Spherical basis functions:                    332

  Maximum angular momentum of- Orbital basis functions:                        2
                             - Local part of the GTH pseudopotential:          2
                             - Non-local part of the GTH pseudopotential:      0


 SCF PARAMETERS         Density guess:                                   RESTART
                        --------------------------------------------------------
                        max_scf:                                              20
                        max_scf_history:                                       0
                        max_diis:                                              4
                        --------------------------------------------------------
                        eps_scf:                                        1.00E-06
                        eps_scf_history:                                0.00E+00
                        eps_diis:                                       1.00E-01
                        eps_eigval:                                     1.00E-05
                        --------------------------------------------------------
                        level_shift [a.u.]:                                 0.00
                        --------------------------------------------------------
                        Outer loop SCF in use 
                        No variables optimised in outer loop
                        eps_scf                                         1.00E-06
                        max_scf                                               20
                        No outer loop optimization
                        step_size                                       5.00E-01

 *******************************************************************************
 *******************************************************************************
 **                                                                           **
 **             #######  ##     ## ##     ## ##     ##                        **
 **            ##     ## ###   ### ###   ### ###   ###                        **
 **            ##     ## #### #### #### #### #### ####                        **
 **            ##     ## ## ### ## ## ### ## ## ### ##                        **
 **            ##  ## ## ##     ## ##     ## ##     ##                        **
 **            ##    ##  ##     ## ##     ## ##     ##  T.Laino and F.Mohamed **
 **             ##### ## ##     ## ##     ## ##     ##  2005 - 2015           **
 **                                                                           **
 **                                                     Calculation Started.. **
 *******************************************************************************
 *******************************************************************************

 MD_PAR| Molecular dynamics protocol (MD input parameters)
 MD_PAR| Ensemble type                                                       NVE
 MD_PAR| Number of time steps                                                  6
 MD_PAR| Time step [fs]                                                 1.000000
 MD_PAR| Temperature [K]                                              300.000000
 MD_PAR| Temperature tolerance [K]                                      0.000000
 MD_PAR| Print MD information every                                    1 step(s)
 MD_PAR| File type   Print frequency [steps]                          File names
 MD_PAR| Coordinates          1                       MQAE-B3LYP-large-pos-1.xyz
 MD_PAR| Velocities           1                       MQAE-B3LYP-large-vel-1.xyz
 MD_PAR| Energies             1                          MQAE-B3LYP-large-1.ener
 MD_PAR| Dump                20                       MQAE-B3LYP-large-1.restart

 ROT| Rotational analysis information
 ROT| Principal axes and moments of inertia [a.u.]
 ROT|                           1                   2                   3
 ROT| Eigenvalues      8.16955424013E+10   8.26770351780E+10   8.33145263212E+10
 ROT|      x              0.339476722416      0.927826629059     -0.154574581827
 ROT|      y              0.779693760491     -0.369496170761     -0.505519751982
 ROT|      z              0.526149403486     -0.051091351539      0.848855982490
 ROT| Number of rotovibrational vectors                                        6

 DOF| Calculation of degrees of freedom
 DOF| Number of atoms                                                       7186
 DOF| Number of intramolecular constraints                                     0
 DOF| Number of intermolecular constraints                                     0
 DOF| Invariants (translations + rotations)                                    3
 DOF| Degrees of freedom                                                   21555

 DOF| Restraints information
 DOF| Number of intramolecular restraints                                      0
 DOF| Number of intermolecular restraints                                      0

 MD_VEL| Velocities initialization
 MD_VEL| Initial temperature [K]                                      300.000000
 MD_VEL| COM velocity            -0.0000000000     0.0000000000    -0.0000000000

  Translating the system in order to center the QM fragment in the QM box.

 Number of electrons:                                                         94
 Number of occupied orbitals:                                                 47
 Number of molecular orbitals:                                                47

 Number of orbital functions:                                                332
 Number of independent orbital functions:                                    332

 Extrapolation method: initial_guess


 SCF WAVEFUNCTION OPTIMIZATION

  ----------------------------------- OT ---------------------------------------
  Minimizer      : DIIS                : direct inversion
                                         in the iterative subspace
                                         using   7 DIIS vectors
                                         safer DIIS on
  Preconditioner : FULL_ALL            : diagonalization, state selective
  Precond_solver : DEFAULT
  stepsize       :    0.15000000                  energy_gap     :    0.08000000
  eps_taylor     :   0.10000E-15                  max_taylor     :             4
  ----------------------------------- OT ---------------------------------------

  Step     Update method      Time    Convergence         Total energy    Change
  ------------------------------------------------------------------------------
  Decoupling Energy:                                               0.0283460848
  Recoupling Energy:                                              -0.0186066200

 *** WARNING in hfx_energy_potential.F:592 :: The Kohn Sham matrix is not  ***
 *** 100% occupied. This may result in incorrect Hartree-Fock results. Try ***
 *** to decrease EPS_PGF_ORB and EPS_FILTER_MATRIX in the QS section. For  ***
 *** more information see FAQ: https://www.cp2k.org/faq:hfx_eps_warning    ***

     1 OT DIIS     0.15E+00    4.4     0.00000025      -146.5977626347 -1.47E+02

  *** SCF run converged in     1 steps ***


  Electronic density on regular grids:        -94.0000165540       -0.0000165540
  Core density on regular grids:               94.9999999999       -0.0000000001
  Total charge density on r-space grids:        0.9999834459
  Total charge density g-space grids:           0.9999834459

  Overlap energy of the core charge distribution:               0.00000599177744
  Self energy of the core charge distribution:               -359.57183942644110
  Core Hamiltonian energy:                                    110.60238234958594
  Hartree energy:                                             145.62298264255088
  Exchange-correlation energy:                                -35.08977447599262
  Hartree-Fock Exchange energy:                                -7.83561671024790
  QM/MM Electrostatic energy:                                  -0.32590300597810

  Total energy:                                              -146.59776263474549

  outer SCF iter =    1 RMS gradient =   0.25E-06 energy =       -146.5977626347
  outer SCF loop converged in   1 iterations or    1 steps

  Decoupling Energy:                                               0.0283460885
  Recoupling Energy:                                              -0.0186066196

 ENERGY| Total FORCE_EVAL ( QMMM ) energy [a.u.]:           -125.274615354724489

 MD_INI| MD initialization
 MD_INI| Potential energy [hartree]                          -0.125274615355E+03
 MD_INI| Total kinetic energy [hartree]                       0.102391057087E+02
 MD_INI| QM kinetic energy [hartree]                          0.538313910515E-01
 MD_INI| Total temperature [K]                                        300.000000
 MD_INI| QM temperature [K]                                           333.305658
 MD_INI| Cell volume [bohr^3]                                 4.911308927827E+05
 MD_INI| Cell volume [ang^3]                                  7.277808868775E+04
 MD_INI| Cell lengths [bohr]      7.88979558E+01  7.88979558E+01  7.88979558E+01
 MD_INI| Cell lengths [ang]       4.17510000E+01  4.17510000E+01  4.17510000E+01
 MD_INI| Cell angles [deg]        9.00000000E+01  9.00000000E+01  9.00000000E+01

  Translating the system in order to center the QM fragment in the QM box.

 Number of electrons:                                                         94
 Number of occupied orbitals:                                                 47
 Number of molecular orbitals:                                                47

 Number of orbital functions:                                                332
 Number of independent orbital functions:                                    332

 Extrapolation method: ASPC


 SCF WAVEFUNCTION OPTIMIZATION

  ----------------------------------- OT ---------------------------------------
  Minimizer      : DIIS                : direct inversion
                                         in the iterative subspace
                                         using   7 DIIS vectors
                                         safer DIIS on
  Preconditioner : FULL_ALL            : diagonalization, state selective
  Precond_solver : DEFAULT
  stepsize       :    0.15000000                  energy_gap     :    0.08000000
  eps_taylor     :   0.10000E-15                  max_taylor     :             4
  ----------------------------------- OT ---------------------------------------

  Step     Update method      Time    Convergence         Total energy    Change
  ------------------------------------------------------------------------------
  Decoupling Energy:                                               0.0283463393
  Recoupling Energy:                                              -0.0186067276

 *** WARNING in hfx_energy_potential.F:592 :: The Kohn Sham matrix is not  ***
 *** 100% occupied. This may result in incorrect Hartree-Fock results. Try ***
 *** to decrease EPS_PGF_ORB and EPS_FILTER_MATRIX in the QS section. For  ***
 *** more information see FAQ: https://www.cp2k.org/faq:hfx_eps_warning    ***

     1 OT DIIS     0.15E+00    4.0     0.00263344      -146.4802776539 -1.46E+02
  Decoupling Energy:                                               0.0283348436
  Recoupling Energy:                                              -0.0186023755
     2 OT DIIS     0.15E+00    0.9     0.00099820      -146.4906369327 -1.04E-02
  Decoupling Energy:                                               0.0283386056
  Recoupling Energy:                                              -0.0186029443
     3 OT DIIS     0.15E+00    0.9     0.00037983      -146.4923378097 -1.70E-03
  Decoupling Energy:                                               0.0283352659
  Recoupling Energy:                                              -0.0186018418
     4 OT DIIS     0.15E+00    0.9     0.00014245      -146.4925388993 -2.01E-04
  Decoupling Energy:                                               0.0283369490
  Recoupling Energy:                                              -0.0186025014
     5 OT DIIS     0.15E+00    0.9     0.00005119      -146.4925548284 -1.59E-05
  Decoupling Energy:                                               0.0283364431
  Recoupling Energy:                                              -0.0186022736
     6 OT DIIS     0.15E+00    0.9     0.00001954      -146.4925572123 -2.38E-06
  Decoupling Energy:                                               0.0283365050
  Recoupling Energy:                                              -0.0186023528
     7 OT DIIS     0.15E+00    0.9     0.00000601      -146.4925575381 -3.26E-07
  Decoupling Energy:                                               0.0283365504
  Recoupling Energy:                                              -0.0186023485
     8 OT DIIS     0.15E+00    0.9     0.00000292      -146.4925575831 -4.50E-08
  Decoupling Energy:                                               0.0283365225
  Recoupling Energy:                                              -0.0186023520
     9 OT DIIS     0.15E+00    0.9     0.00000099      -146.4925575898 -6.71E-09

  *** SCF run converged in     9 steps ***


  Electronic density on regular grids:        -93.9999802765        0.0000197235
  Core density on regular grids:               94.9999999999       -0.0000000001
  Total charge density on r-space grids:        1.0000197234
  Total charge density g-space grids:           1.0000197234

  Overlap energy of the core charge distribution:               0.00003300770837
  Self energy of the core charge distribution:               -359.57183942644110
  Core Hamiltonian energy:                                    110.79302692652769
  Hartree energy:                                             145.52494446380200
  Exchange-correlation energy:                                -35.13662043681838
  Hartree-Fock Exchange energy:                                -7.84755937238485
  QM/MM Electrostatic energy:                                  -0.25454275218839

  Total energy:                                              -146.49255758979467

  outer SCF iter =    1 RMS gradient =   0.99E-06 energy =       -146.4925575898
  outer SCF loop converged in   1 iterations or    9 steps

  Decoupling Energy:                                               0.0283365289
  Recoupling Energy:                                              -0.0186023489

 ENERGY| Total FORCE_EVAL ( QMMM ) energy [a.u.]:           -154.709329664042116

 MD| ***************************************************************************
 MD| Step number                                                               1
 MD| Time [fs]                                                          1.000000
 MD| Conserved quantity [hartree]                            -0.123704268791E+03
 MD| ---------------------------------------------------------------------------
 MD|                                          Instantaneous             Averages
 MD| CPU time per MD step [s]                     42.863071            42.863071
 MD| Energy drift per atom [K]          -0.380931584583E+03   0.000000000000E+00
 MD| Potential energy [hartree]         -0.154709329664E+03  -0.154709329664E+03
 MD| Total kinetic energy [hartree]      0.310050608728E+02   0.310050608728E+02
 MD| QM kinetic energy [hartree]         0.223345352605E+00   0.223345352605E+00
 MD| Total temperature [K]                       908.430729           908.430729
 MD| QM temperature [K]                         1382.878433          1382.878433
 MD| ***************************************************************************

  Translating the system in order to center the QM fragment in the QM box.

 Number of electrons:                                                         94
 Number of occupied orbitals:                                                 47
 Number of molecular orbitals:                                                47

 Number of orbital functions:                                                332
 Number of independent orbital functions:                                    332

 Extrapolation method: ASPC


 SCF WAVEFUNCTION OPTIMIZATION

  ----------------------------------- OT ---------------------------------------
  Minimizer      : DIIS                : direct inversion
                                         in the iterative subspace
                                         using   7 DIIS vectors
                                         safer DIIS on
  Preconditioner : FULL_ALL            : diagonalization, state selective
  Precond_solver : DEFAULT
  stepsize       :    0.15000000                  energy_gap     :    0.08000000
  eps_taylor     :   0.10000E-15                  max_taylor     :             4
  ----------------------------------- OT ---------------------------------------

  Step     Update method      Time    Convergence         Total energy    Change
  ------------------------------------------------------------------------------
  Decoupling Energy:                                               0.0283178845
  Recoupling Energy:                                              -0.0185955958

 *** WARNING in hfx_energy_potential.F:592 :: The Kohn Sham matrix is not  ***
 *** 100% occupied. This may result in incorrect Hartree-Fock results. Try ***
 *** to decrease EPS_PGF_ORB and EPS_FILTER_MATRIX in the QS section. For  ***
 *** more information see FAQ: https://www.cp2k.org/faq:hfx_eps_warning    ***

     1 OT DIIS     0.15E+00    2.8     0.00187895      -146.0906331452 -1.46E+02
  Decoupling Energy:                                               0.0283230982
  Recoupling Energy:                                              -0.0185968812
     2 OT DIIS     0.15E+00    0.9     0.00073316      -146.0960622433 -5.43E-03
  Decoupling Energy:                                               0.0283187899
  Recoupling Energy:                                              -0.0185958408
     3 OT DIIS     0.15E+00    0.9     0.00026714      -146.0970258785 -9.64E-04
  Decoupling Energy:                                               0.0283214092
  Recoupling Energy:                                              -0.0185958906
     4 OT DIIS     0.15E+00    0.9     0.00012005      -146.0971141684 -8.83E-05
  Decoupling Energy:                                               0.0283199774
  Recoupling Energy:                                              -0.0185957220
     5 OT DIIS     0.15E+00    0.9     0.00003253      -146.0971247578 -1.06E-05
  Decoupling Energy:                                               0.0283203037
  Recoupling Energy:                                              -0.0185958241
     6 OT DIIS     0.15E+00    0.9     0.00001172      -146.0971259502 -1.19E-06
  Decoupling Energy:                                               0.0283202491
  Recoupling Energy:                                              -0.0185957501
     7 OT DIIS     0.15E+00    0.9     0.00000432      -146.0971260692 -1.19E-07
  Decoupling Energy:                                               0.0283202296
  Recoupling Energy:                                              -0.0185957717
     8 OT DIIS     0.15E+00    0.9     0.00000194      -146.0971260884 -1.92E-08
  Decoupling Energy:                                               0.0283202434
  Recoupling Energy:                                              -0.0185957649
     9 OT DIIS     0.15E+00    0.9     0.00000068      -146.0971260915 -3.15E-09

  *** SCF run converged in     9 steps ***


  Electronic density on regular grids:        -93.9999880614        0.0000119386
  Core density on regular grids:               94.9999999999       -0.0000000001
  Total charge density on r-space grids:        1.0000119386
  Total charge density g-space grids:           1.0000119386

  Overlap energy of the core charge distribution:               0.00018038921404
  Self energy of the core charge distribution:               -359.57183942644110
  Core Hamiltonian energy:                                    111.01048006970319
  Hartree energy:                                             145.43424848012569
  Exchange-correlation energy:                                -35.18660952639939
  Hartree-Fock Exchange energy:                                -7.85986497329182
  QM/MM Electrostatic energy:                                   0.07627889557102

  Total energy:                                              -146.09712609151836

  outer SCF iter =    1 RMS gradient =   0.68E-06 energy =       -146.0971260915
  outer SCF loop converged in   1 iterations or    9 steps

  Decoupling Energy:                                               0.0283202385
  Recoupling Energy:                                              -0.0185957661

 ENERGY| Total FORCE_EVAL ( QMMM ) energy [a.u.]:           -147.708745853364718

 MD| ***************************************************************************
 MD| Step number                                                               2
 MD| Time [fs]                                                          2.000000
 MD| Conserved quantity [hartree]                            -0.119951807273E+03
 MD| ---------------------------------------------------------------------------
 MD|                                          Instantaneous             Averages
 MD| CPU time per MD step [s]                     23.688536            33.275803
 MD| Energy drift per atom [K]          -0.216037037612E+03  -0.108018518806E+03
 MD| Potential energy [hartree]         -0.147708745853E+03  -0.151209037759E+03
 MD| Total kinetic energy [hartree]      0.277569385799E+02   0.293809997264E+02
 MD| QM kinetic energy [hartree]         0.278596254827E+00   0.250970803716E+00
 MD| Total temperature [K]                       813.262585           860.846657
 MD| QM temperature [K]                         1724.973221          1553.925827
 MD| ***************************************************************************

  Translating the system in order to center the QM fragment in the QM box.

 Number of electrons:                                                         94
 Number of occupied orbitals:                                                 47
 Number of molecular orbitals:                                                47

 Number of orbital functions:                                                332
 Number of independent orbital functions:                                    332

 Extrapolation method: ASPC


 SCF WAVEFUNCTION OPTIMIZATION

  ----------------------------------- OT ---------------------------------------
  Minimizer      : DIIS                : direct inversion
                                         in the iterative subspace
                                         using   7 DIIS vectors
                                         safer DIIS on
  Preconditioner : FULL_ALL            : diagonalization, state selective
  Precond_solver : DEFAULT
  stepsize       :    0.15000000                  energy_gap     :    0.08000000
  eps_taylor     :   0.10000E-15                  max_taylor     :             4
  ----------------------------------- OT ---------------------------------------

  Step     Update method      Time    Convergence         Total energy    Change
  ------------------------------------------------------------------------------
  Decoupling Energy:                                               0.0282926218
  Recoupling Energy:                                              -0.0185861429

 *** WARNING in hfx_energy_potential.F:592 :: The Kohn Sham matrix is not  ***
 *** 100% occupied. This may result in incorrect Hartree-Fock results. Try ***
 *** to decrease EPS_PGF_ORB and EPS_FILTER_MATRIX in the QS section. For  ***
 *** more information see FAQ: https://www.cp2k.org/faq:hfx_eps_warning    ***

     1 OT DIIS     0.15E+00    3.3     0.00311623      -145.7602058649 -1.46E+02
  Decoupling Energy:                                               0.0283071969
  Recoupling Energy:                                              -0.0185887320
     2 OT DIIS     0.15E+00    0.9     0.00115483      -145.7748427452 -1.46E-02
  Decoupling Energy:                                               0.0282986175
  Recoupling Energy:                                              -0.0185884145
     3 OT DIIS     0.15E+00    0.9     0.00047227      -145.7770878295 -2.25E-03
  Decoupling Energy:                                               0.0283055327
  Recoupling Energy:                                              -0.0185889969
     4 OT DIIS     0.15E+00    0.9     0.00020496      -145.7773209588 -2.33E-04
  Decoupling Energy:                                               0.0283024459
  Recoupling Energy:                                              -0.0185885710
     5 OT DIIS     0.15E+00    0.9     0.00005117      -145.7773534134 -3.25E-05
  Decoupling Energy:                                               0.0283028742
  Recoupling Energy:                                              -0.0185886279
     6 OT DIIS     0.15E+00    0.9     0.00001691      -145.7773563150 -2.90E-06
  Decoupling Energy:                                               0.0283028461
  Recoupling Energy:                                              -0.0185885644
     7 OT DIIS     0.15E+00    0.9     0.00000704      -145.7773565786 -2.64E-07
  Decoupling Energy:                                               0.0283028614
  Recoupling Energy:                                              -0.0185885992
     8 OT DIIS     0.15E+00    0.9     0.00000314      -145.7773566298 -5.12E-08
  Decoupling Energy:                                               0.0283028639
  Recoupling Energy:                                              -0.0185885829
     9 OT DIIS     0.15E+00    0.9     0.00000105      -145.7773566374 -7.64E-09
  Decoupling Energy:                                               0.0283028605
  Recoupling Energy:                                              -0.0185885872
    10 OT DIIS     0.15E+00    0.9     0.00000025      -145.7773566387 -1.31E-09

  *** SCF run converged in    10 steps ***


  Electronic density on regular grids:        -94.0000514264       -0.0000514264
  Core density on regular grids:               94.9999999999       -0.0000000001
  Total charge density on r-space grids:        0.9999485735
  Total charge density g-space grids:           0.9999485735

  Overlap energy of the core charge distribution:               0.00001383812478
  Self energy of the core charge distribution:               -359.57183942644110
  Core Hamiltonian energy:                                    110.90961267695525
  Hartree energy:                                             145.46428509065385
  Exchange-correlation energy:                                -35.16778652519713
  Hartree-Fock Exchange energy:                                -7.85418470123997
  QM/MM Electrostatic energy:                                   0.44254240840411

  Total energy:                                              -145.77735663874020

  outer SCF iter =    1 RMS gradient =   0.25E-06 energy =       -145.7773566387
  outer SCF loop converged in   1 iterations or   10 steps

  Decoupling Energy:                                               0.0283028604
  Recoupling Energy:                                              -0.0185885863

 ENERGY| Total FORCE_EVAL ( QMMM ) energy [a.u.]:           -142.851634355823990

 MD| ***************************************************************************
 MD| Step number                                                               3
 MD| Time [fs]                                                          3.000000
 MD| Conserved quantity [hartree]                            -0.117148613477E+03
 MD| ---------------------------------------------------------------------------
 MD|                                          Instantaneous             Averages
 MD| CPU time per MD step [s]                     25.670193            30.740600
 MD| Energy drift per atom [K]          -0.928561951121E+02  -0.102964410908E+03
 MD| Potential energy [hartree]         -0.142851634356E+03  -0.148423236624E+03
 MD| Total kinetic energy [hartree]      0.257030208792E+02   0.281550067773E+02
 MD| QM kinetic energy [hartree]         0.353616419970E+00   0.285186009134E+00
 MD| Total temperature [K]                       753.083959           824.925758
 MD| QM temperature [K]                         2189.472559          1765.774738
 MD| ***************************************************************************

  Translating the system in order to center the QM fragment in the QM box.

 Number of electrons:                                                         94
 Number of occupied orbitals:                                                 47
 Number of molecular orbitals:                                                47

 Number of orbital functions:                                                332
 Number of independent orbital functions:                                    332

 Extrapolation method: ASPC


 SCF WAVEFUNCTION OPTIMIZATION

  ----------------------------------- OT ---------------------------------------
  Minimizer      : DIIS                : direct inversion
                                         in the iterative subspace
                                         using   7 DIIS vectors
                                         safer DIIS on
  Preconditioner : FULL_ALL            : diagonalization, state selective
  Precond_solver : DEFAULT
  stepsize       :    0.15000000                  energy_gap     :    0.08000000
  eps_taylor     :   0.10000E-15                  max_taylor     :             4
  ----------------------------------- OT ---------------------------------------

  Step     Update method      Time    Convergence         Total energy    Change
  ------------------------------------------------------------------------------
  Decoupling Energy:                                               0.0282874590
  Recoupling Energy:                                              -0.0185834684

 *** WARNING in hfx_energy_potential.F:592 :: The Kohn Sham matrix is not  ***
 *** 100% occupied. This may result in incorrect Hartree-Fock results. Try ***
 *** to decrease EPS_PGF_ORB and EPS_FILTER_MATRIX in the QS section. For  ***
 *** more information see FAQ: https://www.cp2k.org/faq:hfx_eps_warning    ***

     1 OT DIIS     0.15E+00    3.1     0.00287916      -145.4481334043 -1.45E+02
  Decoupling Energy:                                               0.0282861837
  Recoupling Energy:                                              -0.0185859619
     2 OT DIIS     0.15E+00    0.9     0.00113112      -145.4612480713 -1.31E-02
  Decoupling Energy:                                               0.0282869372
  Recoupling Energy:                                              -0.0185834160
     3 OT DIIS     0.15E+00    0.9     0.00040523      -145.4635805724 -2.33E-03
  Decoupling Energy:                                               0.0282870447
  Recoupling Energy:                                              -0.0185861234
     4 OT DIIS     0.15E+00    0.9     0.00016815      -145.4637117036 -1.31E-04
  Decoupling Energy:                                               0.0282867480
  Recoupling Energy:                                              -0.0185852215
     5 OT DIIS     0.15E+00    0.9     0.00003931      -145.4637309119 -1.92E-05
  Decoupling Energy:                                               0.0282870412
  Recoupling Energy:                                              -0.0185854308
     6 OT DIIS     0.15E+00    0.9     0.00001405      -145.4637324918 -1.58E-06
  Decoupling Energy:                                               0.0282868685
  Recoupling Energy:                                              -0.0185854067
     7 OT DIIS     0.15E+00    0.9     0.00000564      -145.4637326776 -1.86E-07
  Decoupling Energy:                                               0.0282869013
  Recoupling Energy:                                              -0.0185854019
     8 OT DIIS     0.15E+00    0.9     0.00000197      -145.4637327147 -3.71E-08
  Decoupling Energy:                                               0.0282868889
  Recoupling Energy:                                              -0.0185854038
     9 OT DIIS     0.15E+00    0.9     0.00000076      -145.4637327182 -3.50E-09

  *** SCF run converged in     9 steps ***


  Electronic density on regular grids:        -94.0000182418       -0.0000182418
  Core density on regular grids:               94.9999999999       -0.0000000001
  Total charge density on r-space grids:        0.9999817582
  Total charge density g-space grids:           0.9999817582

  Overlap energy of the core charge distribution:               0.00001232484358
  Self energy of the core charge distribution:               -359.57183942644110
  Core Hamiltonian energy:                                    110.82637364040966
  Hartree energy:                                             145.52875036366800
  Exchange-correlation energy:                                -35.13939590302061
  Hartree-Fock Exchange energy:                                -7.84532051852623
  QM/MM Electrostatic energy:                                   0.73768680091544

  Total energy:                                              -145.46373271815128

  outer SCF iter =    1 RMS gradient =   0.76E-06 energy =       -145.4637327182
  outer SCF loop converged in   1 iterations or    9 steps

  Decoupling Energy:                                               0.0282868975
  Recoupling Energy:                                              -0.0185854043

 ENERGY| Total FORCE_EVAL ( QMMM ) energy [a.u.]:           -170.763827493740877

 MD| ***************************************************************************
 MD| Step number                                                               4
 MD| Time [fs]                                                          4.000000
 MD| Conserved quantity [hartree]                            -0.125034989246E+03
 MD| ---------------------------------------------------------------------------
 MD|                                          Instantaneous             Averages
 MD| CPU time per MD step [s]                     25.180887            29.350672
 MD| Energy drift per atom [K]          -0.439407479812E+03  -0.187075178134E+03
 MD| Potential energy [hartree]         -0.170763827494E+03  -0.154008384342E+03
 MD| Total kinetic energy [hartree]      0.457288382476E+02   0.325484646449E+02
 MD| QM kinetic energy [hartree]         0.372100696306E+00   0.306914680927E+00
 MD| Total temperature [K]                      1339.829070           953.651586
 MD| QM temperature [K]                         2303.920909          1900.311281
 MD| ***************************************************************************

  Translating the system in order to center the QM fragment in the QM box.

 Number of electrons:                                                         94
 Number of occupied orbitals:                                                 47
 Number of molecular orbitals:                                                47

 Number of orbital functions:                                                332
 Number of independent orbital functions:                                    332

 Extrapolation method: ASPC


 SCF WAVEFUNCTION OPTIMIZATION

  ----------------------------------- OT ---------------------------------------
  Minimizer      : DIIS                : direct inversion
                                         in the iterative subspace
                                         using   7 DIIS vectors
                                         safer DIIS on
  Preconditioner : FULL_ALL            : diagonalization, state selective
  Precond_solver : DEFAULT
  stepsize       :    0.15000000                  energy_gap     :    0.08000000
  eps_taylor     :   0.10000E-15                  max_taylor     :             4
  ----------------------------------- OT ---------------------------------------

  Step     Update method      Time    Convergence         Total energy    Change
  ------------------------------------------------------------------------------
  Decoupling Energy:                                               0.0282788120
  Recoupling Energy:                                              -0.0185851027

 *** WARNING in hfx_energy_potential.F:592 :: The Kohn Sham matrix is not  ***
 *** 100% occupied. This may result in incorrect Hartree-Fock results. Try ***
 *** to decrease EPS_PGF_ORB and EPS_FILTER_MATRIX in the QS section. For  ***
 *** more information see FAQ: https://www.cp2k.org/faq:hfx_eps_warning    ***

     1 OT DIIS     0.15E+00    2.2     0.00178505      -145.1177796778 -1.45E+02
  Decoupling Energy:                                               0.0282660165
  Recoupling Energy:                                              -0.0185789958
     2 OT DIIS     0.15E+00    0.9     0.00077806      -145.1228048635 -5.03E-03
  Decoupling Energy:                                               0.0282765379
  Recoupling Energy:                                              -0.0185847885
     3 OT DIIS     0.15E+00    0.9     0.00056526      -145.1236580510 -8.53E-04
  Decoupling Energy:                                               0.0282701704
  Recoupling Energy:                                              -0.0185812489
     4 OT DIIS     0.15E+00    0.9     0.00008093      -145.1238732778 -2.15E-04
  Decoupling Energy:                                               0.0282698834
  Recoupling Energy:                                              -0.0185814167
     5 OT DIIS     0.15E+00    0.9     0.00002387      -145.1238785630 -5.29E-06
  Decoupling Energy:                                               0.0282700787
  Recoupling Energy:                                              -0.0185814153
[1634748888.243315] [nid001172:21304:0]          ib_md.c:325  UCX  ERROR ibv_reg_mr(address=0x2b9fb0a00000, length=20971520, access=0xf) failed: Invalid argument
[1634748888.246032] [nid001172:21304:0]          mpool.c:192  UCX  ERROR Failed to allocate memory pool (name=ud_recv_skb) chunk: Input/output error
[1634748888.246133] [nid001172:21304:0]          ib_md.c:325  UCX  ERROR ibv_reg_mr(address=0x2b9fb0a00000, length=20971520, access=0xf) failed: Invalid argument
[1634748888.246600] [nid001172:21304:0]          mpool.c:192  UCX  ERROR Failed to allocate memory pool (name=ud_recv_skb) chunk: Input/output error
[1634748888.246692] [nid001172:21304:0]          ib_md.c:325  UCX  ERROR ibv_reg_mr(address=0x2b9fb0a00000, length=20971520, access=0xf) failed: Invalid argument
[1634748888.247154] [nid001172:21304:0]          mpool.c:192  UCX  ERROR Failed to allocate memory pool (name=ud_recv_skb) chunk: Input/output error
[1634748888.247237] [nid001172:21304:0]          ib_md.c:325  UCX  ERROR ibv_reg_mr(address=0x2b9fb0a00000, length=20971520, access=0xf) failed: Invalid argument
[1634748888.247654] [nid001172:21304:0]          mpool.c:192  UCX  ERROR Failed to allocate memory pool (name=ud_recv_skb) chunk: Input/output error
[1634748888.247737] [nid001172:21304:0]          ib_md.c:325  UCX  ERROR ibv_reg_mr(address=0x2b9fb0a00000, length=20971520, access=0xf) failed: Invalid argument
[1634748888.248162] [nid001172:21304:0]          mpool.c:192  UCX  ERROR Failed to allocate memory pool (name=ud_recv_skb) chunk: Input/output error
[1634748888.248242] [nid001172:21304:0]          ib_md.c:325  UCX  ERROR ibv_reg_mr(address=0x2b9fb0a00000, length=20971520, access=0xf) failed: Invalid argument
[1634748888.248664] [nid001172:21304:0]          mpool.c:192  UCX  ERROR Failed to allocate memory pool (name=ud_recv_skb) chunk: Input/output error
[1634748888.248747] [nid001172:21304:0]          ib_md.c:325  UCX  ERROR ibv_reg_mr(address=0x2b9fb0a00000, length=20971520, access=0xf) failed: Invalid argument
[1634748888.249166] [nid001172:21304:0]          mpool.c:192  UCX  ERROR Failed to allocate memory pool (name=ud_recv_skb) chunk: Input/output error
[1634748888.249247] [nid001172:21304:0]          ib_md.c:325  UCX  ERROR ibv_reg_mr(address=0x2b9fb0a00000, length=20971520, access=0xf) failed: Invalid argument
[1634748888.249659] [nid001172:21304:0]          mpool.c:192  UCX  ERROR Failed to allocate memory pool (name=ud_recv_skb) chunk: Input/output error
[1634748888.249736] [nid001172:21304:0]          ib_md.c:325  UCX  ERROR ibv_reg_mr(address=0x2b9fb0a00000, length=20971520, access=0xf) failed: Invalid argument
[1634748888.250157] [nid001172:21304:0]          mpool.c:192  UCX  ERROR Failed to allocate memory pool (name=ud_recv_skb) chunk: Input/output error
[1634748888.250236] [nid001172:21304:0]          ib_md.c:325  UCX  ERROR ibv_reg_mr(address=0x2b9fb0a00000, length=20971520, access=0xf) failed: Invalid argument
[1634748888.250651] [nid001172:21304:0]          mpool.c:192  UCX  ERROR Failed to allocate memory pool (name=ud_recv_skb) chunk: Input/output error
[1634748888.250730] [nid001172:21304:0]          ib_md.c:325  UCX  ERROR ibv_reg_mr(address=0x2b9fb0a00000, length=20971520, access=0xf) failed: Invalid argument
[1634748888.251145] [nid001172:21304:0]          mpool.c:192  UCX  ERROR Failed to allocate memory pool (name=ud_recv_skb) chunk: Input/output error
[1634748888.251226] [nid001172:21304:0]          ib_md.c:325  UCX  ERROR ibv_reg_mr(address=0x2b9fb0a00000, length=20971520, access=0xf) failed: Invalid argument
[1634748888.251637] [nid001172:21304:0]          mpool.c:192  UCX  ERROR Failed to allocate memory pool (name=ud_recv_skb) chunk: Input/output error
[1634748888.251713] [nid001172:21304:0]          ib_md.c:325  UCX  ERROR ibv_reg_mr(address=0x2b9fb0a00000, length=20971520, access=0xf) failed: Invalid argument
[1634748888.252132] [nid001172:21304:0]          mpool.c:192  UCX  ERROR Failed to allocate memory pool (name=ud_recv_skb) chunk: Input/output error
[1634748888.252211] [nid001172:21304:0]          ib_md.c:325  UCX  ERROR ibv_reg_mr(address=0x2b9fb0a00000, length=20971520, access=0xf) failed: Invalid argument
[1634748888.252626] [nid001172:21304:0]          mpool.c:192  UCX  ERROR Failed to allocate memory pool (name=ud_recv_skb) chunk: Input/output error
[1634748888.252679] [nid001172:21304:0]          ib_md.c:325  UCX  ERROR ibv_reg_mr(address=0x2b9fb0a00000, length=20971520, access=0xf) failed: Invalid argument
[1634748888.253088] [nid001172:21304:0]          mpool.c:192  UCX  ERROR Failed to allocate memory pool (name=ud_recv_skb) chunk: Input/output error
[1634748888.253140] [nid001172:21304:0]          ib_md.c:325  UCX  ERROR ibv_reg_mr(address=0x2b9fb0a00000, length=20971520, access=0xf) failed: Invalid argument
[1634748888.253553] [nid001172:21304:0]          mpool.c:192  UCX  ERROR Failed to allocate memory pool (name=ud_recv_skb) chunk: Input/output error
[1634748888.253630] [nid001172:21304:0]          ib_md.c:325  UCX  ERROR ibv_reg_mr(address=0x2b9fb0a00000, length=20971520, access=0xf) failed: Invalid argument
[1634748888.254049] [nid001172:21304:0]          mpool.c:192  UCX  ERROR Failed to allocate memory pool (name=ud_recv_skb) chunk: Input/output error
[1634748888.254126] [nid001172:21304:0]          ib_md.c:325  UCX  ERROR ibv_reg_mr(address=0x2b9fb0a00000, length=20971520, access=0xf) failed: Invalid argument
[1634748888.254544] [nid001172:21304:0]          mpool.c:192  UCX  ERROR Failed to allocate memory pool (name=ud_recv_skb) chunk: Input/output error
[1634748888.254620] [nid001172:21304:0]          ib_md.c:325  UCX  ERROR ibv_reg_mr(address=0x2b9fb0a00000, length=20971520, access=0xf) failed: Invalid argument
[1634748888.255036] [nid001172:21304:0]          mpool.c:192  UCX  ERROR Failed to allocate memory pool (name=ud_recv_skb) chunk: Input/output error
[1634748888.255111] [nid001172:21304:0]          ib_md.c:325  UCX  ERROR ibv_reg_mr(address=0x2b9fb0a00000, length=20971520, access=0xf) failed: Invalid argument
[1634748888.255524] [nid001172:21304:0]          mpool.c:192  UCX  ERROR Failed to allocate memory pool (name=ud_recv_skb) chunk: Input/output error
[1634748888.255600] [nid001172:21304:0]          ib_md.c:325  UCX  ERROR ibv_reg_mr(address=0x2b9fb0a00000, length=20971520, access=0xf) failed: Invalid argument
[1634748888.256015] [nid001172:21304:0]          mpool.c:192  UCX  ERROR Failed to allocate memory pool (name=ud_recv_skb) chunk: Input/output error
[1634748888.256091] [nid001172:21304:0]          ib_md.c:325  UCX  ERROR ibv_reg_mr(address=0x2b9fb0a00000, length=20971520, access=0xf) failed: Invalid argument
[1634748888.256507] [nid001172:21304:0]          mpool.c:192  UCX  ERROR Failed to allocate memory pool (name=ud_recv_skb) chunk: Input/output error
[1634748888.256559] [nid001172:21304:0]          ib_md.c:325  UCX  ERROR ibv_reg_mr(address=0x2b9fb0a00000, length=20971520, access=0xf) failed: Invalid argument
[1634748888.256965] [nid001172:21304:0]          mpool.c:192  UCX  ERROR Failed to allocate memory pool (name=ud_recv_skb) chunk: Input/output error
[1634748888.257017] [nid001172:21304:0]          ib_md.c:325  UCX  ERROR ibv_reg_mr(address=0x2b9fb0a00000, length=20971520, access=0xf) failed: Invalid argument
[1634748888.257424] [nid001172:21304:0]          mpool.c:192  UCX  ERROR Failed to allocate memory pool (name=ud_recv_skb) chunk: Input/output error
[1634748888.257494] [nid001172:21304:0]          ib_md.c:325  UCX  ERROR ibv_reg_mr(address=0x2b9fb0a00000, length=20971520, access=0xf) failed: Invalid argument
[1634748888.257910] [nid001172:21304:0]          mpool.c:192  UCX  ERROR Failed to allocate memory pool (name=ud_recv_skb) chunk: Input/output error
[1634748888.257990] [nid001172:21304:0]          ib_md.c:325  UCX  ERROR ibv_reg_mr(address=0x2b9fb0a00000, length=20971520, access=0xf) failed: Invalid argument
[1634748888.258398] [nid001172:21304:0]          mpool.c:192  UCX  ERROR Failed to allocate memory pool (name=ud_recv_skb) chunk: Input/output error
[1634748888.258474] [nid001172:21304:0]          ib_md.c:325  UCX  ERROR ibv_reg_mr(address=0x2b9fb0a00000, length=20971520, access=0xf) failed: Invalid argument
[1634748888.258888] [nid001172:21304:0]          mpool.c:192  UCX  ERROR Failed to allocate memory pool (name=ud_recv_skb) chunk: Input/output error
[1634748888.258964] [nid001172:21304:0]          ib_md.c:325  UCX  ERROR ibv_reg_mr(address=0x2b9fb0a00000, length=20971520, access=0xf) failed: Invalid argument
[1634748888.259377] [nid001172:21304:0]          mpool.c:192  UCX  ERROR Failed to allocate memory pool (name=ud_recv_skb) chunk: Input/output error
[1634748888.259448] [nid001172:21304:0]          ib_md.c:325  UCX  ERROR ibv_reg_mr(address=0x2b9fb0a00000, length=20971520, access=0xf) failed: Invalid argument
[1634748888.259862] [nid001172:21304:0]          mpool.c:192  UCX  ERROR Failed to allocate memory pool (name=ud_recv_skb) chunk: Input/output error
[1634748888.259934] [nid001172:21304:0]          ib_md.c:325  UCX  ERROR ibv_reg_mr(address=0x2b9fb0a00000, length=20971520, access=0xf) failed: Invalid argument
[1634748888.260350] [nid001172:21304:0]          mpool.c:192  UCX  ERROR Failed to allocate memory pool (name=ud_recv_skb) chunk: Input/output error
[1634748888.260411] [nid001172:21304:0]          ib_md.c:325  UCX  ERROR ibv_reg_mr(address=0x2b9fb0a00000, length=20971520, access=0xf) failed: Invalid argument
[1634748888.260816] [nid001172:21304:0]          mpool.c:192  UCX  ERROR Failed to allocate memory pool (name=ud_recv_skb) chunk: Input/output error
[1634748888.260868] [nid001172:21304:0]          ib_md.c:325  UCX  ERROR ibv_reg_mr(address=0x2b9fb0a00000, length=20971520, access=0xf) failed: Invalid argument
[1634748888.261279] [nid001172:21304:0]          mpool.c:192  UCX  ERROR Failed to allocate memory pool (name=ud_recv_skb) chunk: Input/output error
[1634748888.261349] [nid001172:21304:0]          ib_md.c:325  UCX  ERROR ibv_reg_mr(address=0x2b9fb0a00000, length=20971520, access=0xf) failed: Invalid argument
[1634748888.261764] [nid001172:21304:0]          mpool.c:192  UCX  ERROR Failed to allocate memory pool (name=ud_recv_skb) chunk: Input/output error
[1634748888.261835] [nid001172:21304:0]          ib_md.c:325  UCX  ERROR ibv_reg_mr(address=0x2b9fb0a00000, length=20971520, access=0xf) failed: Invalid argument
[1634748888.262266] [nid001172:21304:0]          mpool.c:192  UCX  ERROR Failed to allocate memory pool (name=ud_recv_skb) chunk: Input/output error
[1634748888.262340] [nid001172:21304:0]          ib_md.c:325  UCX  ERROR ibv_reg_mr(address=0x2b9fb0a00000, length=20971520, access=0xf) failed: Invalid argument
[1634748888.262752] [nid001172:21304:0]          mpool.c:192  UCX  ERROR Failed to allocate memory pool (name=ud_recv_skb) chunk: Input/output error
[1634748888.262823] [nid001172:21304:0]          ib_md.c:325  UCX  ERROR ibv_reg_mr(address=0x2b9fb0a00000, length=20971520, access=0xf) failed: Invalid argument
[1634748888.263230] [nid001172:21304:0]          mpool.c:192  UCX  ERROR Failed to allocate memory pool (name=ud_recv_skb) chunk: Input/output error
[1634748888.263301] [nid001172:21304:0]          ib_md.c:325  UCX  ERROR ibv_reg_mr(address=0x2b9fb0a00000, length=20971520, access=0xf) failed: Invalid argument
[1634748888.263712] [nid001172:21304:0]          mpool.c:192  UCX  ERROR Failed to allocate memory pool (name=ud_recv_skb) chunk: Input/output error
[1634748888.263785] [nid001172:21304:0]          ib_md.c:325  UCX  ERROR ibv_reg_mr(address=0x2b9fb0a00000, length=20971520, access=0xf) failed: Invalid argument
[1634748888.264197] [nid001172:21304:0]          mpool.c:192  UCX  ERROR Failed to allocate memory pool (name=ud_recv_skb) chunk: Input/output error
[1634748888.264273] [nid001172:21304:0]          ib_md.c:325  UCX  ERROR ibv_reg_mr(address=0x2b9fb0a00000, length=20971520, access=0xf) failed: Invalid argument
[1634748888.264684] [nid001172:21304:0]          mpool.c:192  UCX  ERROR Failed to allocate memory pool (name=ud_recv_skb) chunk: Input/output error
[1634748888.264736] [nid001172:21304:0]          ib_md.c:325  UCX  ERROR ibv_reg_mr(address=0x2b9fb0a00000, length=20971520, access=0xf) failed: Invalid argument
[1634748888.265135] [nid001172:21304:0]          mpool.c:192  UCX  ERROR Failed to allocate memory pool (name=ud_recv_skb) chunk: Input/output error
[1634748888.265187] [nid001172:21304:0]          ib_md.c:325  UCX  ERROR ibv_reg_mr(address=0x2b9fb0a00000, length=20971520, access=0xf) failed: Invalid argument
[1634748888.265600] [nid001172:21304:0]          mpool.c:192  UCX  ERROR Failed to allocate memory pool (name=ud_recv_skb) chunk: Input/output error
[1634748888.265666] [nid001172:21304:0]          ib_md.c:325  UCX  ERROR ibv_reg_mr(address=0x2b9fb0a00000, length=20971520, access=0xf) failed: Invalid argument
[1634748888.266082] [nid001172:21304:0]          mpool.c:192  UCX  ERROR Failed to allocate memory pool (name=ud_recv_skb) chunk: Input/output error
[1634748888.266150] [nid001172:21304:0]          ib_md.c:325  UCX  ERROR ibv_reg_mr(address=0x2b9fb0a00000, length=20971520, access=0xf) failed: Invalid argument
[1634748888.266560] [nid001172:21304:0]          mpool.c:192  UCX  ERROR Failed to allocate memory pool (name=ud_recv_skb) chunk: Input/output error
[1634748888.266630] [nid001172:21304:0]          ib_md.c:325  UCX  ERROR ibv_reg_mr(address=0x2b9fb0a00000, length=20971520, access=0xf) failed: Invalid argument
[1634748888.267040] [nid001172:21304:0]          mpool.c:192  UCX  ERROR Failed to allocate memory pool (name=ud_recv_skb) chunk: Input/output error
[1634748888.267110] [nid001172:21304:0]          ib_md.c:325  UCX  ERROR ibv_reg_mr(address=0x2b9fb0a00000, length=20971520, access=0xf) failed: Invalid argument
[1634748888.267523] [nid001172:21304:0]          mpool.c:192  UCX  ERROR Failed to allocate memory pool (name=ud_recv_skb) chunk: Input/output error
[1634748888.267593] [nid001172:21304:0]          ib_md.c:325  UCX  ERROR ibv_reg_mr(address=0x2b9fb0a00000, length=20971520, access=0xf) failed: Invalid argument
[1634748888.268006] [nid001172:21304:0]          mpool.c:192  UCX  ERROR Failed to allocate memory pool (name=ud_recv_skb) chunk: Input/output error
[1634748888.268077] [nid001172:21304:0]          ib_md.c:325  UCX  ERROR ibv_reg_mr(address=0x2b9fb0a00000, length=20971520, access=0xf) failed: Invalid argument
[1634748888.268536] [nid001172:21304:0]          mpool.c:192  UCX  ERROR Failed to allocate memory pool (name=ud_recv_skb) chunk: Input/output error
[1634748888.268590] [nid001172:21304:0]          ib_md.c:325  UCX  ERROR ibv_reg_mr(address=0x2b9fb0a00000, length=20971520, access=0xf) failed: Invalid argument
[1634748888.268993] [nid001172:21304:0]          mpool.c:192  UCX  ERROR Failed to allocate memory pool (name=ud_recv_skb) chunk: Input/output error
[1634748888.269045] [nid001172:21304:0]          ib_md.c:325  UCX  ERROR ibv_reg_mr(address=0x2b9fb0a00000, length=20971520, access=0xf) failed: Invalid argument
[1634748888.269478] [nid001172:21304:0]          mpool.c:192  UCX  ERROR Failed to allocate memory pool (name=ud_recv_skb) chunk: Input/output error
[1634748888.269549] [nid001172:21304:0]          ib_md.c:325  UCX  ERROR ibv_reg_mr(address=0x2b9fb0a00000, length=20971520, access=0xf) failed: Invalid argument
[1634748888.269962] [nid001172:21304:0]          mpool.c:192  UCX  ERROR Failed to allocate memory pool (name=ud_recv_skb) chunk: Input/output error
[1634748888.270033] [nid001172:21304:0]          ib_md.c:325  UCX  ERROR ibv_reg_mr(address=0x2b9fb0a00000, length=20971520, access=0xf) failed: Invalid argument
[1634748888.270445] [nid001172:21304:0]          mpool.c:192  UCX  ERROR Failed to allocate memory pool (name=ud_recv_skb) chunk: Input/output error
[1634748888.270515] [nid001172:21304:0]          ib_md.c:325  UCX  ERROR ibv_reg_mr(address=0x2b9fb0a00000, length=20971520, access=0xf) failed: Invalid argument
[1634748888.270925] [nid001172:21304:0]          mpool.c:192  UCX  ERROR Failed to allocate memory pool (name=ud_recv_skb) chunk: Input/output error
[1634748888.270995] [nid001172:21304:0]          ib_md.c:325  UCX  ERROR ibv_reg_mr(address=0x2b9fb0a00000, length=20971520, access=0xf) failed: Invalid argument
[1634748888.271408] [nid001172:21304:0]          mpool.c:192  UCX  ERROR Failed to allocate memory pool (name=ud_recv_skb) chunk: Input/output error
[1634748888.271459] [nid001172:21304:0]          ib_md.c:325  UCX  ERROR ibv_reg_mr(address=0x2b9fb0a00000, length=20971520, access=0xf) failed: Invalid argument
[1634748888.271866] [nid001172:21304:0]          mpool.c:192  UCX  ERROR Failed to allocate memory pool (name=ud_recv_skb) chunk: Input/output error
[1634748888.271918] [nid001172:21304:0]          ib_md.c:325  UCX  ERROR ibv_reg_mr(address=0x2b9fb0a00000, length=20971520, access=0xf) failed: Invalid argument
[1634748888.272329] [nid001172:21304:0]          mpool.c:192  UCX  ERROR Failed to allocate memory pool (name=ud_recv_skb) chunk: Input/output error
[1634748888.272399] [nid001172:21304:0]          ib_md.c:325  UCX  ERROR ibv_reg_mr(address=0x2b9fb0a00000, length=20971520, access=0xf) failed: Invalid argument
[1634748888.272807] [nid001172:21304:0]          mpool.c:192  UCX  ERROR Failed to allocate memory pool (name=ud_recv_skb) chunk: Input/output error
[1634748888.272877] [nid001172:21304:0]          ib_md.c:325  UCX  ERROR ibv_reg_mr(address=0x2b9fb0a00000, length=20971520, access=0xf) failed: Invalid argument
[1634748888.273289] [nid001172:21304:0]          mpool.c:192  UCX  ERROR Failed to allocate memory pool (name=ud_recv_skb) chunk: Input/output error
[1634748888.273358] [nid001172:21304:0]          ib_md.c:325  UCX  ERROR ibv_reg_mr(address=0x2b9fb0a00000, length=20971520, access=0xf) failed: Invalid argument
[1634748888.273771] [nid001172:21304:0]          mpool.c:192  UCX  ERROR Failed to allocate memory pool (name=ud_recv_skb) chunk: Input/output error
[1634748888.273841] [nid001172:21304:0]          ib_md.c:325  UCX  ERROR ibv_reg_mr(address=0x2b9fb0a00000, length=20971520, access=0xf) failed: Invalid argument
[1634748888.274267] [nid001172:21304:0]          mpool.c:192  UCX  ERROR Failed to allocate memory pool (name=ud_recv_skb) chunk: Input/output error
[1634748888.274354] [nid001172:21304:0]          ib_md.c:325  UCX  ERROR ibv_reg_mr(address=0x2b9fb0a00000, length=20971520, access=0xf) failed: Invalid argument
[1634748888.274785] [nid001172:21304:0]          mpool.c:192  UCX  ERROR Failed to allocate memory pool (name=ud_recv_skb) chunk: Input/output error
[1634748888.274835] [nid001172:21304:0]          ib_md.c:325  UCX  ERROR ibv_reg_mr(address=0x2b9fb0a00000, length=20971520, access=0xf) failed: Invalid argument
[1634748888.275245] [nid001172:21304:0]          mpool.c:192  UCX  ERROR Failed to allocate memory pool (name=ud_recv_skb) chunk: Input/output error
[1634748888.275331] [nid001172:21304:0]          ib_md.c:325  UCX  ERROR ibv_reg_mr(address=0x2b9fb0a00000, length=20971520, access=0xf) failed: Invalid argument
[1634748888.275758] [nid001172:21304:0]          mpool.c:192  UCX  ERROR Failed to allocate memory pool (name=ud_recv_skb) chunk: Input/output error
[1634748888.275828] [nid001172:21304:0]          ib_md.c:325  UCX  ERROR ibv_reg_mr(address=0x2b9fb0a00000, length=20971520, access=0xf) failed: Invalid argument
[1634748888.276237] [nid001172:21304:0]          mpool.c:192  UCX  ERROR Failed to allocate memory pool (name=ud_recv_skb) chunk: Input/output error
[1634748888.276307] [nid001172:21304:0]          ib_md.c:325  UCX  ERROR ibv_reg_mr(address=0x2b9fb0a00000, length=20971520, access=0xf) failed: Invalid argument
[1634748888.276718] [nid001172:21304:0]          mpool.c:192  UCX  ERROR Failed to allocate memory pool (name=ud_recv_skb) chunk: Input/output error
[1634748888.276787] [nid001172:21304:0]          ib_md.c:325  UCX  ERROR ibv_reg_mr(address=0x2b9fb0a00000, length=20971520, access=0xf) failed: Invalid argument
[1634748888.277199] [nid001172:21304:0]          mpool.c:192  UCX  ERROR Failed to allocate memory pool (name=ud_recv_skb) chunk: Input/output error
[1634748888.277284] [nid001172:21304:0]          ib_md.c:325  UCX  ERROR ibv_reg_mr(address=0x2b9fb0a00000, length=20971520, access=0xf) failed: Invalid argument
[1634748888.277717] [nid001172:21304:0]          mpool.c:192  UCX  ERROR Failed to allocate memory pool (name=ud_recv_skb) chunk: Input/output error
[1634748888.277768] [nid001172:21304:0]          ib_md.c:325  UCX  ERROR ibv_reg_mr(address=0x2b9fb0a00000, length=20971520, access=0xf) failed: Invalid argument
[1634748888.278235] [nid001172:21304:0]          mpool.c:192  UCX  ERROR Failed to allocate memory pool (name=ud_recv_skb) chunk: Input/output error
[1634748888.278319] [nid001172:21304:0]          ib_md.c:325  UCX  ERROR ibv_reg_mr(address=0x2b9fb0a00000, length=20971520, access=0xf) failed: Invalid argument
[1634748888.278739] [nid001172:21304:0]          mpool.c:192  UCX  ERROR Failed to allocate memory pool (name=ud_recv_skb) chunk: Input/output error
[1634748888.278805] [nid001172:21304:0]          ib_md.c:325  UCX  ERROR ibv_reg_mr(address=0x2b9fb0a00000, length=20971520, access=0xf) failed: Invalid argument
[1634748888.279217] [nid001172:21304:0]          mpool.c:192  UCX  ERROR Failed to allocate memory pool (name=ud_recv_skb) chunk: Input/output error
[1634748888.279287] [nid001172:21304:0]          ib_md.c:325  UCX  ERROR ibv_reg_mr(address=0x2b9fb0a00000, length=20971520, access=0xf) failed: Invalid argument
[1634748888.279700] [nid001172:21304:0]          mpool.c:192  UCX  ERROR Failed to allocate memory pool (name=ud_recv_skb) chunk: Input/output error
[1634748888.279770] [nid001172:21304:0]          ib_md.c:325  UCX  ERROR ibv_reg_mr(address=0x2b9fb0a00000, length=20971520, access=0xf) failed: Invalid argument
[1634748888.280181] [nid001172:21304:0]          mpool.c:192  UCX  ERROR Failed to allocate memory pool (name=ud_recv_skb) chunk: Input/output error
[1634748888.280257] [nid001172:21304:0]          ib_md.c:325  UCX  ERROR ibv_reg_mr(address=0x2b9fb0a00000, length=20971520, access=0xf) failed: Invalid argument
[1634748888.280690] [nid001172:21304:0]          mpool.c:192  UCX  ERROR Failed to allocate memory pool (name=ud_recv_skb) chunk: Input/output error
[1634748888.280739] [nid001172:21304:0]          ib_md.c:325  UCX  ERROR ibv_reg_mr(address=0x2b9fb0a00000, length=20971520, access=0xf) failed: Invalid argument
[1634748888.281142] [nid001172:21304:0]          mpool.c:192  UCX  ERROR Failed to allocate memory pool (name=ud_recv_skb) chunk: Input/output error
[1634748888.281194] [nid001172:21304:0]          ib_md.c:325  UCX  ERROR ibv_reg_mr(address=0x2b9fb0a00000, length=20971520, access=0xf) failed: Invalid argument
[1634748888.281608] [nid001172:21304:0]          mpool.c:192  UCX  ERROR Failed to allocate memory pool (name=ud_recv_skb) chunk: Input/output error
[1634748888.281674] [nid001172:21304:0]          ib_md.c:325  UCX  ERROR ibv_reg_mr(address=0x2b9fb0a00000, length=20971520, access=0xf) failed: Invalid argument
[1634748888.282091] [nid001172:21304:0]          mpool.c:192  UCX  ERROR Failed to allocate memory pool (name=ud_recv_skb) chunk: Input/output error
[1634748888.282159] [nid001172:21304:0]          ib_md.c:325  UCX  ERROR ibv_reg_mr(address=0x2b9fb0a00000, length=20971520, access=0xf) failed: Invalid argument
[1634748888.282569] [nid001172:21304:0]          mpool.c:192  UCX  ERROR Failed to allocate memory pool (name=ud_recv_skb) chunk: Input/output error
[1634748888.282638] [nid001172:21304:0]          ib_md.c:325  UCX  ERROR ibv_reg_mr(address=0x2b9fb0a00000, length=20971520, access=0xf) failed: Invalid argument
[1634748888.283050] [nid001172:21304:0]          mpool.c:192  UCX  ERROR Failed to allocate memory pool (name=ud_recv_skb) chunk: Input/output error
[1634748888.283119] [nid001172:21304:0]          ib_md.c:325  UCX  ERROR ibv_reg_mr(address=0x2b9fb0a00000, length=20971520, access=0xf) failed: Invalid argument
[1634748888.283530] [nid001172:21304:0]          mpool.c:192  UCX  ERROR Failed to allocate memory pool (name=ud_recv_skb) chunk: Input/output error
[1634748888.283582] [nid001172:21304:0]          ib_md.c:325  UCX  ERROR ibv_reg_mr(address=0x2b9fb0a00000, length=20971520, access=0xf) failed: Invalid argument
[1634748888.283984] [nid001172:21304:0]          mpool.c:192  UCX  ERROR Failed to allocate memory pool (name=ud_recv_skb) chunk: Input/output error
[1634748888.284036] [nid001172:21304:0]          ib_md.c:325  UCX  ERROR ibv_reg_mr(address=0x2b9fb0a00000, length=20971520, access=0xf) failed: Invalid argument
[1634748888.284441] [nid001172:21304:0]          mpool.c:192  UCX  ERROR Failed to allocate memory pool (name=ud_recv_skb) chunk: Input/output error
[1634748888.284498] [nid001172:21304:0]          ib_md.c:325  UCX  ERROR ibv_reg_mr(address=0x2b9fb0a00000, length=20971520, access=0xf) failed: Invalid argument
[1634748888.284903] [nid001172:21304:0]          mpool.c:192  UCX  ERROR Failed to allocate memory pool (name=ud_recv_skb) chunk: Input/output error
[1634748888.284961] [nid001172:21304:0]          ib_md.c:325  UCX  ERROR ibv_reg_mr(address=0x2b9fb0a00000, length=20971520, access=0xf) failed: Invalid argument
[1634748888.285375] [nid001172:21304:0]          mpool.c:192  UCX  ERROR Failed to allocate memory pool (name=ud_recv_skb) chunk: Input/output error
[1634748888.285445] [nid001172:21304:0]          ib_md.c:325  UCX  ERROR ibv_reg_mr(address=0x2b9fb0a00000, length=20971520, access=0xf) failed: Invalid argument
[1634748888.285857] [nid001172:21304:0]          mpool.c:192  UCX  ERROR Failed to allocate memory pool (name=ud_recv_skb) chunk: Input/output error
[1634748888.285932] [nid001172:21304:0]          ib_md.c:325  UCX  ERROR ibv_reg_mr(address=0x2b9fb0a00000, length=20971520, access=0xf) failed: Invalid argument
[1634748888.286343] [nid001172:21304:0]          mpool.c:192  UCX  ERROR Failed to allocate memory pool (name=ud_recv_skb) chunk: Input/output error
[1634748888.286405] [nid001172:21304:0]          ib_md.c:325  UCX  ERROR ibv_reg_mr(address=0x2b9fb0a00000, length=20971520, access=0xf) failed: Invalid argument
[1634748888.286813] [nid001172:21304:0]          mpool.c:192  UCX  ERROR Failed to allocate memory pool (name=ud_recv_skb) chunk: Input/output error
[1634748888.286867] [nid001172:21304:0]          ib_md.c:325  UCX  ERROR ibv_reg_mr(address=0x2b9fb0a00000, length=20971520, access=0xf) failed: Invalid argument
[1634748888.287279] [nid001172:21304:0]          mpool.c:192  UCX  ERROR Failed to allocate memory pool (name=ud_recv_skb) chunk: Input/output error
[1634748888.287333] [nid001172:21304:0]          ib_md.c:325  UCX  ERROR ibv_reg_mr(address=0x2b9fb0a00000, length=20971520, access=0xf) failed: Invalid argument
[1634748888.287892] [nid001172:21304:0]          mpool.c:192  UCX  ERROR Failed to allocate memory pool (name=ud_recv_skb) chunk: Input/output error
[1634748888.287947] [nid001172:21304:0]          ib_md.c:325  UCX  ERROR ibv_reg_mr(address=0x2b9fb0a00000, length=20971520, access=0xf) failed: Invalid argument
[1634748888.288363] [nid001172:21304:0]          mpool.c:192  UCX  ERROR Failed to allocate memory pool (name=ud_recv_skb) chunk: Input/output error
[1634748888.288432] [nid001172:21304:0]          ib_md.c:325  UCX  ERROR ibv_reg_mr(address=0x2b9fb0a00000, length=20971520, access=0xf) failed: Invalid argument
[1634748888.288847] [nid001172:21304:0]          mpool.c:192  UCX  ERROR Failed to allocate memory pool (name=ud_recv_skb) chunk: Input/output error
[1634748888.288917] [nid001172:21304:0]          ib_md.c:325  UCX  ERROR ibv_reg_mr(address=0x2b9fb0a00000, length=20971520, access=0xf) failed: Invalid argument
[1634748888.289332] [nid001172:21304:0]          mpool.c:192  UCX  ERROR Failed to allocate memory pool (name=ud_recv_skb) chunk: Input/output error
[1634748888.289399] [nid001172:21304:0]          ib_md.c:325  UCX  ERROR ibv_reg_mr(address=0x2b9fb0a00000, length=20971520, access=0xf) failed: Invalid argument
[1634748888.289805] [nid001172:21304:0]          mpool.c:192  UCX  ERROR Failed to allocate memory pool (name=ud_recv_skb) chunk: Input/output error
[1634748888.289860] [nid001172:21304:0]          ib_md.c:325  UCX  ERROR ibv_reg_mr(address=0x2b9fb0a00000, length=20971520, access=0xf) failed: Invalid argument
[1634748888.290271] [nid001172:21304:0]          mpool.c:192  UCX  ERROR Failed to allocate memory pool (name=ud_recv_skb) chunk: Input/output error
[1634748888.290329] [nid001172:21304:0]          ib_md.c:325  UCX  ERROR ibv_reg_mr(address=0x2b9fb0a00000, length=20971520, access=0xf) failed: Invalid argument
[1634748888.290738] [nid001172:21304:0]          mpool.c:192  UCX  ERROR Failed to allocate memory pool (name=ud_recv_skb) chunk: Input/output error
[1634748888.290793] [nid001172:21304:0]          ib_md.c:325  UCX  ERROR ibv_reg_mr(address=0x2b9fb0a00000, length=20971520, access=0xf) failed: Invalid argument
[1634748888.291203] [nid001172:21304:0]          mpool.c:192  UCX  ERROR Failed to allocate memory pool (name=ud_recv_skb) chunk: Input/output error
[1634748888.291270] [nid001172:21304:0]          ib_md.c:325  UCX  ERROR ibv_reg_mr(address=0x2b9fb0a00000, length=20971520, access=0xf) failed: Invalid argument
[1634748888.291688] [nid001172:21304:0]          mpool.c:192  UCX  ERROR Failed to allocate memory pool (name=ud_recv_skb) chunk: Input/output error
[1634748888.291758] [nid001172:21304:0]          ib_md.c:325  UCX  ERROR ibv_reg_mr(address=0x2b9fb0a00000, length=20971520, access=0xf) failed: Invalid argument
[1634748888.292171] [nid001172:21304:0]          mpool.c:192  UCX  ERROR Failed to allocate memory pool (name=ud_recv_skb) chunk: Input/output error
[1634748888.292240] [nid001172:21304:0]          ib_md.c:325  UCX  ERROR ibv_reg_mr(address=0x2b9fb0a00000, length=20971520, access=0xf) failed: Invalid argument
[1634748888.292652] [nid001172:21304:0]          mpool.c:192  UCX  ERROR Failed to allocate memory pool (name=ud_recv_skb) chunk: Input/output error
[1634748888.292707] [nid001172:21304:0]          ib_md.c:325  UCX  ERROR ibv_reg_mr(address=0x2b9fb0a00000, length=20971520, access=0xf) failed: Invalid argument
[1634748888.293116] [nid001172:21304:0]          mpool.c:192  UCX  ERROR Failed to allocate memory pool (name=ud_recv_skb) chunk: Input/output error
[1634748888.293172] [nid001172:21304:0]          ib_md.c:325  UCX  ERROR ibv_reg_mr(address=0x2b9fb0a00000, length=20971520, access=0xf) failed: Invalid argument
[1634748888.293584] [nid001172:21304:0]          mpool.c:192  UCX  ERROR Failed to allocate memory pool (name=ud_recv_skb) chunk: Input/output error
[1634748888.293638] [nid001172:21304:0]          ib_md.c:325  UCX  ERROR ibv_reg_mr(address=0x2b9fb0a00000, length=20971520, access=0xf) failed: Invalid argument
[1634748888.294103] [nid001172:21304:0]          mpool.c:192  UCX  ERROR Failed to allocate memory pool (name=ud_recv_skb) chunk: Input/output error
[1634748888.294158] [nid001172:21304:0]          ib_md.c:325  UCX  ERROR ibv_reg_mr(address=0x2b9fb0a00000, length=20971520, access=0xf) failed: Invalid argument
[1634748888.294576] [nid001172:21304:0]          mpool.c:192  UCX  ERROR Failed to allocate memory pool (name=ud_recv_skb) chunk: Input/output error
[1634748888.294647] [nid001172:21304:0]          ib_md.c:325  UCX  ERROR ibv_reg_mr(address=0x2b9fb0a00000, length=20971520, access=0xf) failed: Invalid argument
[1634748888.295062] [nid001172:21304:0]          mpool.c:192  UCX  ERROR Failed to allocate memory pool (name=ud_recv_skb) chunk: Input/output error
[1634748888.295131] [nid001172:21304:0]          ib_md.c:325  UCX  ERROR ibv_reg_mr(address=0x2b9fb0a00000, length=20971520, access=0xf) failed: Invalid argument
[1634748888.295542] [nid001172:21304:0]          mpool.c:192  UCX  ERROR Failed to allocate memory pool (name=ud_recv_skb) chunk: Input/output error
[...]
 flops    14 x    15 x    38             27259680     100.0%      0.0%      0.0%
 flops    15 x    32 x    43             27616320     100.0%      0.0%      0.0%
 flops    32 x    15 x    43             27616320     100.0%      0.0%      0.0%
 flops    19 x    32 x    47             27890176     100.0%      0.0%      0.0%
 flops     5 x    15 x     5             32082000     100.0%      0.0%      0.0%
 flops    14 x    15 x    47             33715920     100.0%      0.0%      0.0%
 flops    32 x    32 x    32             34471936     100.0%      0.0%      0.0%
 flops    32 x    32 x    38             34709504     100.0%      0.0%      0.0%
 flops    19 x    32 x    43             38274816     100.0%      0.0%      0.0%
 flops    32 x    32 x    47             42930176     100.0%      0.0%      0.0%
 flops     5 x    14 x    32             43563520     100.0%      0.0%      0.0%
 flops    14 x     5 x    32             43563520     100.0%      0.0%      0.0%
 flops    14 x    15 x    43             46269720     100.0%      0.0%      0.0%
 flops    14 x    32 x    32             57802752     100.0%      0.0%      0.0%
 flops    14 x    32 x    38             58153984     100.0%      0.0%      0.0%
 flops    32 x    32 x    43             58914816     100.0%      0.0%      0.0%
 flops    14 x    14 x    15             68372640     100.0%      0.0%      0.0%
 flops     5 x    32 x     5             68441600     100.0%      0.0%      0.0%
 flops    14 x    32 x    47             71927296     100.0%      0.0%      0.0%
 flops    14 x    32 x    43             98708736     100.0%      0.0%      0.0%
 flops     5 x    15 x    14            102702600     100.0%      0.0%      0.0%
 flops    14 x    15 x     5            102702600     100.0%      0.0%      0.0%
 flops    14 x    14 x    32            145861632     100.0%      0.0%      0.0%
 flops    14 x    32 x     5            219098880     100.0%      0.0%      0.0%
 flops     5 x    32 x    14            219098880     100.0%      0.0%      0.0%
 flops    14 x    15 x    14            325775520     100.0%      0.0%      0.0%
 flops    14 x    32 x    14            694987776     100.0%      0.0%      0.0%
 flops inhomo. stacks                  1373584306     100.0%      0.0%      0.0%
 flops total                         4.678760E+09     100.0%      0.0%      0.0%
 flops max/rank                    856.404208E+06     100.0%      0.0%      0.0%
 matmuls inhomo. stacks                     22500     100.0%      0.0%      0.0%
 matmuls total                             544690     100.0%      0.0%      0.0%
 number of processed stacks                265258     100.0%      0.0%      0.0%
 average stack size                                     2.1       0.0       0.0
 marketing flops                     4.593239E+09
 -------------------------------------------------------------------------------
 # multiplications                           1394
 max memory usage/rank               2.845409E+09
 # max total images/rank                        2
 # max 3D layers                                1
 # MPI messages exchanged                  579904
 MPI messages size (bytes):
  total size                         2.626991E+09
  min size                           0.000000E+00
  max size                          32.336000E+03
  average size                       4.530044E+03
 MPI breakdown and total messages size (bytes):
             size <=      128              417622                        0
       128 < size <=     8192               50826                239468792
      8192 < size <=    32768              111456               2387521888
     32768 < size <=   131072                   0                        0
    131072 < size <=  4194304                   0                        0
   4194304 < size <= 16777216                   0                        0
  16777216 < size                               0                        0
 -------------------------------------------------------------------------------

 *** WARNING in dbcsr_mm.F:294 :: Using a non-square number of MPI ranks ***
 *** might lead to poor performance. Used ranks: 32 Suggested: 36 64     ***

 -------------------------------------------------------------------------------
 -                                                                             -
 -                      DBCSR MESSAGE PASSING PERFORMANCE                      -
 -                                                                             -
 -------------------------------------------------------------------------------
 ROUTINE             CALLS      AVE VOLUME [Bytes]
 MP_Bcast               77                     12.
 MP_Allreduce         7437                      8.
 MP_Alltoall          5532                   4953.
 MP_ISend            42960                   3405.
 MP_IRecv            42514                   2876.
 -------------------------------------------------------------------------------

 -------------------------------------------------------------------------------
 -                                                                             -
 -                                GRID STATISTICS                              -
 -                                                                             -
 -------------------------------------------------------------------------------
 LP    KERNEL             BACKEND                              COUNT     PERCENT
 1     collocate ortho    REF                                 364270      21.32%
 1     integrate ortho    REF                                 344707      20.17%
 2     integrate ortho    REF                                 236766      13.85%
 2     collocate ortho    REF                                 220240      12.89%
 0     collocate ortho    REF                                 193885      11.35%
 0     integrate ortho    REF                                 171641      10.04%
 3     integrate ortho    REF                                  79768       4.67%
 3     collocate ortho    REF                                  61551       3.60%
 4     integrate ortho    REF                                  13156       0.77%
 0     collocate general  REF                                   7616       0.45%
 1     integrate general  REF                                   7616       0.45%
 4     collocate ortho    REF                                   6881       0.40%
 5     integrate ortho    REF                                    789       0.05%
 -------------------------------------------------------------------------------

 MEMORY| Estimated peak process memory [MiB]                                2714

 -------------------------------------------------------------------------------
 -                                                                             -
 -                         MESSAGE PASSING PERFORMANCE                         -
 -                                                                             -
 -------------------------------------------------------------------------------

 ROUTINE             CALLS      AVE VOLUME [Bytes]
 MP_Group                8
 MP_Bcast              740                4304971.
 MP_Allreduce         2349                2313044.
 MP_Sync               427
 MP_Alltoall          1306               47738276.
 MP_ISendRecv        12431                  73172.
 MP_Wait             17036
 MP_comm_split          21
 MP_ISend             3719                1600795.
 MP_IRecv             3712                1601840.
 MP_Recv                49                  15936.
 -------------------------------------------------------------------------------


 -------------------------------------------------------------------------------
 -                                                                             -
 -                           R E F E R E N C E S                               -
 -                                                                             -
 -------------------------------------------------------------------------------
 
 CP2K version 8.2, the CP2K developers group (2021).
 CP2K is freely available from https://www.cp2k.org/ .

 Kuehne,Thomas D.; Iannuzzi,Marcella; Del Ben,Mauro;
 Rybkin,Vladimir V.; Seewald,Patrick; Stein,Frederick; Laino,Teodoro;
 Khaliullin,Rustam Z.; Schuett,Ole; Schiffmann,Florian; Golze,Dorothea;
 Wilhelm,Jan; Chulkov,Sergey; Bani-Hashemian,Mohammad Hossein;
 Weber,Valery; Borstnik,Urban; Taillefumier,Mathieu;
 Jakobovits,Alice Shoshana; Lazzaro,Alfio; Pabst,Hans; Mueller,Tiziano;
 Schade,Robert; Guidon,Manuel; Andermatt,Samuel; Holmberg,Nico;
 Schenter,Gregory K.; Hehn,Anna; Bussy,Augustin; Belleflamme,Fabian;
 Tabacchi,Gloria; Gloess,Andreas; Lass,Michael; Bethune,Iain;
 Mundy,Christopher J.; Plessl,Christian; Watkins,Matt;
 VandeVondele,Joost; Krack,Matthias; Hutter,Juerg. 
 The Journal of Chemical Physics, 152 (19), (2020). 
 CP2K: An electronic structure and molecular dynamics software package -
 Quickstep: Efficient and accurate electronic structure calculations.
 https://doi.org/10.1063/5.0007045

 Schuett, Ole; Messmer, Peter; Hutter, Juerg; VandeVondele, Joost. 
 Electronic Structure Calculations on Graphics Processing Units, John
 Wiley & Sons, Ltd, 173-190 (2016). 
 GPU-Accelerated Sparse Matrix-Matrix Multiplication for
 Linear Scaling Density Functional Theory.
 https://doi.org/10.1002/9781118670712.ch8

 Borstnik, U; VandeVondele, J; Weber, V; Hutter, J. 
 PARALLEL COMPUTING, 40 (5-6), 47-58 (2014). 
 Sparse matrix multiplication: The distributed block-compressed sparse
 row library.
 https://doi.org/10.1016/j.parco.2014.03.012

 Hutter, J; Iannuzzi, M; Schiffmann, F; VandeVondele, J. 
 WIREs Comput Mol Sci., 4 (1), 15-25 (2014). 
 CP2K: atomistic simulations of condensed matter systems.
 https://doi.org/10.1002/wcms.1159

 Marek, A; Blum, V; Johanni, R; Havu, V; Lang, B; Auckenthaler, T;
 Heinecke, A; Bungartz, H; Lederer, H. 
 Journal of Physics: Condensed Matter, 26 (21), (2014). 
 The ELPA library: scalable parallel eigenvalue solutions for
 electronic structure
 theory and computational science.
 https://doi.org/10.1088/0953-8984/26/21/213201

 Guidon, M; Hutter, J; VandeVondele, J. 
 JOURNAL OF CHEMICAL THEORY AND COMPUTATION, 5 (11), 3010-3021 (2009). 
 Robust Periodic Hartree-Fock Exchange for Large-Scale Simulations Using
 Gaussian Basis Sets.
 https://doi.org/10.1021/ct900494g

 Guidon, M; Schiffmann, F; Hutter, J; VandeVondele, J. 
 JOURNAL OF CHEMICAL PHYSICS, 128 (21), 214104 (2008). 
 Ab initio molecular dynamics using hybrid density functionals.
 https://doi.org/10.1063/1.2931945

 Kuhne, TD; Krack, M; Mohamed, FR; Parrinello, M. 
 PHYSICAL REVIEW LETTERS, 98 (6), 066401 (2007). 
 Efficient and accurate Car-Parrinello-like approach to
 Born-Oppenheimer molecular dynamics.
 https://doi.org/10.1103/PhysRevLett.98.066401

 Laino, T; Mohamed, F; Laio, A; Parrinello, M. 
 JOURNAL OF CHEMICAL THEORY AND COMPUTATION, 2 (5), 1370-1378 (2006). 
 An efficient linear-scaling electrostatic coupling for treating
 periodic boundary conditions in QM/MM simulations.
 https://doi.org/10.1021/ct6001169

 Laino, T; Mohamed, F; Laio, A; Parrinello, M. 
 JOURNAL OF CHEMICAL THEORY AND COMPUTATION, 1 (6), 1176-1184 (2005). 
 An efficient real space multigrid QM/MM electrostatic coupling.
 https://doi.org/10.1021/ct050123f

 Krack, M. 
 THEORETICAL CHEMISTRY ACCOUNTS, 114 (1-3), 145-152 (2005). 
 Pseudopotentials for H to Kr optimized for gradient-corrected
 exchange-correlation functionals.
 https://doi.org/10.1007/s00214-005-0655-y

 VandeVondele, J; Krack, M; Mohamed, F; Parrinello, M; Chassaing, T;
 Hutter, J. COMPUTER PHYSICS COMMUNICATIONS, 167 (2), 103-128 (2005). 
 QUICKSTEP: Fast and accurate density functional calculations using a
 mixed Gaussian and plane waves approach.
 https://doi.org/10.1016/j.cpc.2004.12.014

 Frigo, M; Johnson, SG. 
 PROCEEDINGS OF THE IEEE, 93 (2), 216-231 (2005). 
 The design and implementation of FFTW3.
 https://doi.org/10.1109/JPROC.2004.840301

 Kolafa, J. 
 JOURNAL OF COMPUTATIONAL CHEMISTRY, 25 (3), 335-342 (2004). 
 Time-reversible always stable predictor-corrector method for molecular dynamics of polarizable molecules.
 https://doi.org/10.1002/jcc.10385

 VandeVondele, J; Hutter, J. 
 JOURNAL OF CHEMICAL PHYSICS, 118 (10), 4365-4369 (2003). 
 An efficient orbital transformation method for electronic structure
 calculations.
 https://doi.org/10.1063/1.1543154

 Hartwigsen, C; Goedecker, S; Hutter, J. 
 PHYSICAL REVIEW B, 58 (7), 3641-3662 (1998). 
 Relativistic separable dual-space Gaussian pseudopotentials from H to Rn.
 https://doi.org/10.1103/PhysRevB.58.3641

 Lippert, G; Hutter, J; Parrinello, M. 
 MOLECULAR PHYSICS, 92 (3), 477-487 (1997). 
 A hybrid Gaussian and plane wave density functional scheme.
 https://doi.org/10.1080/002689797170220

 Goedecker, S; Teter, M; Hutter, J. 
 PHYSICAL REVIEW B, 54 (3), 1703-1710 (1996). 
 Separable dual-space Gaussian pseudopotentials.
 https://doi.org/10.1103/PhysRevB.54.1703

 ESSMANN, U; PERERA, L; BERKOWITZ, ML; DARDEN, T; LEE, H; PEDERSEN, LG. 
 JOURNAL OF CHEMICAL PHYSICS, 103 (19), 8577-8593 (1995). 
 A SMOOTH PARTICLE MESH EWALD METHOD.
 https://doi.org/10.1063/1.470117

 BLOCHL, PE. 
 JOURNAL OF CHEMICAL PHYSICS, 103 (17), 7422-7428 (1995). 
 ELECTROSTATIC DECOUPLING OF PERIODIC IMAGES OF PLANE-WAVE-EXPANDED
 DENSITIES AND DERIVED ATOMIC POINT CHARGES.
 https://doi.org/10.1063/1.470314

 BECKE, AD. PHYSICAL REVIEW A, 38 (6), 3098-3100 (1988). 
 DENSITY-FUNCTIONAL EXCHANGE-ENERGY APPROXIMATION WITH CORRECT
 ASYMPTOTIC-BEHAVIOR.
 https://doi.org/10.1103/PhysRevA.38.3098

 LEE, CT; YANG, WT; PARR, RG. 
 PHYSICAL REVIEW B, 37 (2), 785-789 (1988). 
 DEVELOPMENT OF THE COLLE-SALVETTI CORRELATION-ENERGY FORMULA INTO A
 FUNCTIONAL OF THE ELECTRON-DENSITY.
 https://doi.org/10.1103/PhysRevB.37.785

 VOSKO, SH; WILK, L; NUSAIR, M. 
 CANADIAN JOURNAL OF PHYSICS, 58 (8), 1200-1211 (1980). 
 ACCURATE SPIN-DEPENDENT ELECTRON LIQUID CORRELATION ENERGIES FOR LOCAL
 SPIN-DENSITY CALCULATIONS - A CRITICAL ANALYSIS.
 https://doi.org/10.1139/p80-159


 -------------------------------------------------------------------------------
 -                                                                             -
 -                                T I M I N G                                  -
 -                                                                             -
 -------------------------------------------------------------------------------
 SUBROUTINE                       CALLS  ASD         SELF TIME        TOTAL TIME
                                MAXIMUM       AVERAGE  MAXIMUM  AVERAGE  MAXIMUM
 CP2K                                 1  1.0    0.031    0.043  164.890  164.891
 qs_mol_dyn_low                       1  2.0    0.003    0.003  163.240  163.316
 velocity_verlet                      6  3.0    0.002    0.002  145.001  145.022
 qs_forces                            7  3.9    0.001    0.001   78.796   78.797
 qs_energies                          7  4.9    0.000    0.001   69.226   69.229
 scf_env_do_scf                       7  5.9    0.000    0.001   65.607   65.607
 rebuild_ks_matrix                   61  8.6    0.000    0.000   59.980   59.991
 qs_ks_build_kohn_sham_matrix        61  9.6    0.010    0.011   59.980   59.991
 qs_ks_update_qs_env                 61  8.0    0.001    0.001   50.442   50.451
 qmmm_el_coupling                     7  3.9    0.000    0.000   44.317   44.418
 qmmm_elec_with_gaussian              7  4.9    1.104    1.160   44.312   44.412
 scf_env_do_scf_inner_loop           54  7.0    0.001    0.003   44.148   44.157
 qmmm_forces                          7  3.9    0.001    0.001   38.755   38.768
 qmmm_forces_with_gaussian            7  4.9    1.042    1.073   37.773   37.955
 pw_transfer                       1297 12.1    0.101    0.113   30.250   30.833
 fft_wrap_pw1pw2                   1079 13.3    0.012    0.013   29.621   30.213
 fft_wrap_pw1pw2_200                685 14.5    3.009    3.120   28.977   29.589
 mp_sum_dm3                          38  5.7   28.538   28.943   28.538   28.943
 hfx_ks_matrix                       61 10.6    0.002    0.002   24.896   25.042
 fft3d_ps                          1079 15.3   10.912   11.764   22.837   23.383
 qs_vxc_create                       61 10.6    0.001    0.001   23.231   23.233
 xc_vxc_pw_create                    61 11.6    0.589    0.680   23.230   23.231
 init_scf_loop                        7  6.9    0.000    0.000   21.446   21.447
 integrate_four_center               61 11.6    5.475    7.677   20.046   20.189
 qmmm_elec_with_gaussian_low          7  5.9    0.000    0.000   17.532   17.955
 qmmm_elec_gaussian_low_G             7  6.9   16.249   16.684   16.249   16.684
 qs_rho_update_rho                   61  8.1    0.001    0.001   14.760   14.762
 calculate_rho_elec                  61  9.1    0.305    0.326   14.760   14.762
 pw_restrict_s3                      21  5.9    3.310    3.438   13.829   13.982
 qmmm_elec_with_gaussian:spline       7  5.9    0.000    0.000   11.388   11.483
 pw_prolongate_s3                    21  6.9    2.716    2.841   11.388   11.483
 xc_rho_set_and_dset_create          61 12.6    0.572    0.621   10.284   11.269
 mp_sync                            427 13.1    8.438    9.864    8.438    9.864
 mp_alltoall_z22v                  1079 17.3    8.736    9.647    8.736    9.647
 qs_ks_update_qs_env_forces           7  4.9    0.000    0.000    9.542    9.544
 density_rs2pw                       61 10.1    0.003    0.003    8.098    8.274
 qmmm_force_with_gaussian_low         7  5.9    0.000    0.000    8.144    8.242
 pw_integral_ab                    2965  7.5    7.183    7.341    7.346    7.511
 yz_to_x                            502 15.8    1.437    1.514    6.051    6.777
 qmmm_forces_gaussian_low_G           7  6.9    6.644    6.742    6.644    6.742
 sum_up_and_integrate                61 10.6    0.107    0.118    6.522    6.547
 integrate_v_rspace                  61 11.6    0.003    0.004    6.415    6.444
 grid_collocate_task_list            61 10.1    6.236    6.412    6.236    6.412
 potential_pw2rs                     61 12.6    0.012    0.013    6.142    6.176
 x_to_yz                            577 16.6    1.732    1.870    5.854    6.009
 rs_pw_transfer                     530 11.9    0.008    0.010    5.673    5.864
 derivatives_four_center              7  8.9    0.034    0.310    4.838    4.840
 integrate_four_center_main          61 12.6    0.026    0.030    4.375    4.600
 integrate_four_center_bin         3954 13.6    4.349    4.570    4.349    4.570
 derivatives_four_center_main         7  9.9    0.017    0.101    4.458    4.465
 derivatives_four_center_bin        719 10.8    4.282    4.368    4.282    4.368
 add_fine2coarse                     21  6.9    3.832    3.859    3.832    3.859
 pw_axpy                           1900  8.3    3.403    3.517    3.403    3.517
 add_coarse2fine                     21  7.9    3.432    3.474    3.432    3.474
 pw_zero                           2443  7.3    3.115    3.300    3.115    3.300
 -------------------------------------------------------------------------------

 The number of warnings for this run is : 8
 
 -------------------------------------------------------------------------------
  **** **** ******  **  PROGRAM ENDED AT                 2021-10-20 17:55:20.502
 ***** ** ***  *** **   PROGRAM RAN ON                                 nid001172
 **    ****   ******    PROGRAM RAN BY                                     hjbio
 ***** **    ** ** **   PROGRAM PROCESS ID                                 21293
  **** **  *******  **  PROGRAM STOPPED IN /lus/cls01095/work/d118/d118/hjbio/qm
                                           mm-benchmarking/archer2/CPU/cp2kMD/MQ
                                           AE-B3LYP-large/6STEPS/2NODES/128CPN/8
                                           THREADS
