 DBCSR| CPU Multiplication driver                                           BLAS
 DBCSR| Multrec recursion limit                                              512
 DBCSR| Multiplication stack size                                           1000
 DBCSR| Maximum elements for images                                    UNLIMITED
 DBCSR| Multiplicative factor virtual images                                   1
 DBCSR| Use multiplication densification                                       T
 DBCSR| Multiplication size stacks                                             3
 DBCSR| Use memory pool for CPU allocation                                     F
 DBCSR| Number of 3D layers                                               SINGLE
 DBCSR| Use MPI memory allocation                                              F
 DBCSR| Use RMA algorithm                                                      F
 DBCSR| Use Communication thread                                               T
 DBCSR| Communication thread load                                             60
 DBCSR| MPI: My node id                                                        0
 DBCSR| MPI: Number of nodes                                                   4
 DBCSR| OMP: Current number of threads                                         8
 DBCSR| OMP: Max number of threads                                             8
 DBCSR| Split modifier for TAS multiplication algorithm                  1.0E+00


  **** **** ******  **  PROGRAM STARTED AT               2021-10-05 11:41:48.436
 ***** ** ***  *** **   PROGRAM STARTED ON                             nid001480
 **    ****   ******    PROGRAM STARTED BY                                 hjbio
 ***** **    ** ** **   PROGRAM PROCESS ID                                198922
  **** **  *******  **  PROGRAM STARTED IN /lus/cls01095/work/d118/d118/hjbio/qm
                                           mm-benchmarking/archer2/CPU/cp2kMD/Cl
                                           C-19/1STEPS/1NODES/32CPN/8THREADS

 CP2K| version string:                                          CP2K version 8.2
 CP2K| source code revision number:                                  git:310b7ab
 CP2K| cp2kflags: omp libint fftw3 libxc elpa parallel mpi3 scalapack plumed2   
 CP2K| is freely available from                            https://www.cp2k.org/
 CP2K| Program compiled at                          Thu 10 Jun 17:43:51 BST 2021
 CP2K| Program compiled on                                                 uan01
 CP2K| Program compiled for                                              ARCHER2
 CP2K| Data directory path              /work/d118/d118/hjbio/CP2K/cp2k-8.2/data
 CP2K| Input file name                                           ClC-19-cp2k.inp

 GLOBAL| Force Environment number                                              1
 GLOBAL| Basis set file name                                        BASIS_MOLOPT
 GLOBAL| Potential file name                                           POTENTIAL
 GLOBAL| MM Potential file name                                     MM_POTENTIAL
 GLOBAL| Coordinate file name                                            ClC.pdb
 GLOBAL| Method name                                                        CP2K
 GLOBAL| Project name                                                ClC-19-BLYP
 GLOBAL| Run type                                                             MD
 GLOBAL| FFT library                                                       FFTW3
 GLOBAL| Diagonalization library                                            ELPA
 GLOBAL| Minimum number of eigenvectors for ELPA usage                        16
 GLOBAL| Orthonormality check for eigenvectors                          DISABLED
 GLOBAL| Matrix multiplication library                                    SCALAP
 GLOBAL| All-to-all communication in single precision                          F
 GLOBAL| FFTs using library dependent lengths                                  F
 GLOBAL| Grid backend                                                       AUTO
 GLOBAL| Global print level                                                  LOW
 GLOBAL| MPI I/O enabled                                                       T
 GLOBAL| Total number of message passing processes                             4
 GLOBAL| Number of threads for this process                                    8
 GLOBAL| This output is from process                                           0
 GLOBAL| CPU model name                          AMD EPYC 7742 64-Core Processor
 GLOBAL| CPUID                                                              1002

 MEMORY| system memory details [Kb]
 MEMORY|                        rank 0           min           max       average
 MEMORY| MemTotal            263568576     263568576     263568576     263568576
 MEMORY| MemFree             250879124     250879124     250879124     250879124
 MEMORY| Buffers                303364        303364        303364        303364
 MEMORY| Cached                2886472       2886472       2886472       2886472
 MEMORY| Slab                  1874616       1874616       1874616       1874616
 MEMORY| SReclaimable           251084        251084        251084        251084
 MEMORY| MemLikelyFree       254320044     254320044     254320044     254320044



                      ************* ******** ***********   
                     ************* **********************  
                     ****     **** ****      ***********   
                     ******** ****  *******     ****       
                     *******  ****   *******   ****        
                     ****     ****       ****  ****        
                     ****     **** **********  ****        
                      ****     **** ********    ****       
                     FRONTIERS IN SIMULATION TECHNOLOGY    
                                                           
                        C.J. Mundy, S. Balasubramanian,    
                     Ken Bagchi, J. Hutter, Ari Seitsonen  
                      IFW Kuo, T. Laino, J. VandeVondele   
                                 Version 1.0               

                                                           


 EWALD| Summation is done by:                                               SPME
 EWALD| Alpha parameter [       ANGSTROM^-1]                              0.4000
 EWALD| Real Space Cutoff [          ANGSTROM]                            8.4348
 EWALD| G-space max. Miller index                         80        80        80
 EWALD| Spline interpolation order                                             6

 FORCEFIELD| WARNING: A non Critical ForceField parameter is missing! CP2K GOES!
 FORCEFIELD| Non critical parameters are:Urey-Bradley,Torsions,Impropers, Opbends and 1-4
 FORCEFIELD| All missing parameters will not contribute to the potential energy!
 FORCEFIELD| Activate the print key FF_INFO to have a list of missing parameters

 CHARGE_INFO| Total Charge of the Classical System:                     0.856595

 SPLINE_INFO| Generating 49141 splines for NONBONDED14 interactions 
              Due to 313 different atomic kinds
  ...4914  ...9828  ...14742  ...19656  ...24570  ...29484  ...34398  ...39312  ...44226  ...49140
 SPLINE_INFO| Number of unique splines computed:            254
 SPLINE_INFO| Done

 SPLINE_INFO| Generating 49141 splines for NONBONDED interactions 
              Due to 313 different atomic kinds
  ...4914  ...9828  ...14742  ...19656  ...24570  ...29484  ...34398  ...39312  ...44226  ...49140
 SPLINE_INFO| Number of unique splines computed:            254
 SPLINE_INFO| Done

 *******************************************************************************
 *******************************************************************************
 **                                                                           **
 **     #####                         ##              ##                      **
 **    ##   ##            ##          ##              ##                      **
 **   ##     ##                       ##            ######                    **
 **   ##     ##  ##   ##  ##   #####  ##  ##   ####   ##    #####    #####    **
 **   ##     ##  ##   ##  ##  ##      ## ##   ##      ##   ##   ##  ##   ##   **
 **   ##  ## ##  ##   ##  ##  ##      ####     ###    ##   ######   ######    **
 **    ##  ###   ##   ##  ##  ##      ## ##      ##   ##   ##       ##        **
 **     #######   #####   ##   #####  ##  ##  ####    ##    #####   ##        **
 **           ##                                                    ##        **
 **                                                                           **
 **                                                ... make the atoms dance   **
 **                                                                           **
 **            Copyright (C) by CP2K developers group (2000-2021)             **
 **                      J. Chem. Phys. 152, 194103 (2020)                    **
 **                                                                           **
 *******************************************************************************


 TOTAL NUMBERS AND MAXIMUM NUMBERS

  Total number of            - Atomic kinds:                                   4
                             - Atoms:                                         21
                             - Shell sets:                                    21
                             - Shells:                                        83
                             - Primitive Cartesian functions:                147
                             - Cartesian basis functions:                    195
                             - Spherical basis functions:                    185

  Maximum angular momentum of- Orbital basis functions:                        2
                             - Local part of the GTH pseudopotential:          2
                             - Non-local part of the GTH pseudopotential:      0


 SCF PARAMETERS         Density guess:                                   RESTART
                        --------------------------------------------------------
                        max_scf:                                             300
                        max_scf_history:                                       0
                        max_diis:                                              4
                        --------------------------------------------------------
                        eps_scf:                                        1.00E-06
                        eps_scf_history:                                0.00E+00
                        eps_diis:                                       1.00E-01
                        eps_eigval:                                     1.00E-05
                        --------------------------------------------------------
                        level_shift [a.u.]:                                 0.00
                        --------------------------------------------------------
                        No outer SCF

 *******************************************************************************
 *******************************************************************************
 **                                                                           **
 **             #######  ##     ## ##     ## ##     ##                        **
 **            ##     ## ###   ### ###   ### ###   ###                        **
 **            ##     ## #### #### #### #### #### ####                        **
 **            ##     ## ## ### ## ## ### ## ## ### ##                        **
 **            ##  ## ## ##     ## ##     ## ##     ##                        **
 **            ##    ##  ##     ## ##     ## ##     ##  T.Laino and F.Mohamed **
 **             ##### ## ##     ## ##     ## ##     ##  2005 - 2015           **
 **                                                                           **
 **                                                     Calculation Started.. **
 *******************************************************************************
 *******************************************************************************

 MD_PAR| Molecular dynamics protocol (MD input parameters)
 MD_PAR| Ensemble type                                                       NVE
 MD_PAR| Number of time steps                                                  1
 MD_PAR| Time step [fs]                                                 1.000000
 MD_PAR| Temperature [K]                                              300.000000
 MD_PAR| Temperature tolerance [K]                                      0.000000
 MD_PAR| Print MD information every                                    1 step(s)
 MD_PAR| File type   Print frequency [steps]                          File names
 MD_PAR| Coordinates          1                            ClC-19-BLYP-pos-1.xyz
 MD_PAR| Velocities           1                            ClC-19-BLYP-vel-1.xyz
 MD_PAR| Energies             1                               ClC-19-BLYP-1.ener
 MD_PAR| Dump                20                            ClC-19-BLYP-1.restart

 ROT| Rotational analysis information
 ROT| Principal axes and moments of inertia [a.u.]
 ROT|                           1                   2                   3
 ROT| Eigenvalues      1.18228221563E+13   1.18772146411E+13   1.55923586977E+13
 ROT|      x             -0.973134378681     -0.230223222672      0.002597839626
 ROT|      y             -0.230225448758      0.973137141292     -0.000589052320
 ROT|      z              0.002392440703      0.001171315857      0.999996452117
 ROT| Number of rotovibrational vectors                                        6

 DOF| Calculation of degrees of freedom
 DOF| Number of atoms                                                     150925
 DOF| Number of intramolecular constraints                                     0
 DOF| Number of intermolecular constraints                                     0
 DOF| Invariants (translations + rotations)                                    3
 DOF| Degrees of freedom                                                  452772

 DOF| Restraints information
 DOF| Number of intramolecular restraints                                      0
 DOF| Number of intermolecular restraints                                      0

 MD_VEL| Velocities initialization
 MD_VEL| Initial temperature [K]                                      300.000000
 MD_VEL| COM velocity            -0.0000000000     0.0000000000     0.0000000000

  Translating the system in order to center the QM fragment in the QM box.

 Number of electrons:                                                         58
 Number of occupied orbitals:                                                 29
 Number of molecular orbitals:                                                29

 Number of orbital functions:                                                185
 Number of independent orbital functions:                                    185

 Extrapolation method: initial_guess


 SCF WAVEFUNCTION OPTIMIZATION

  ----------------------------------- OT ---------------------------------------
  Minimizer      : DIIS                : direct inversion
                                         in the iterative subspace
                                         using   7 DIIS vectors
                                         safer DIIS on
  Preconditioner : FULL_ALL            : diagonalization, state selective
  Precond_solver : DEFAULT
  stepsize       :    0.15000000                  energy_gap     :    0.08000000
  eps_taylor     :   0.10000E-15                  max_taylor     :             4
  ----------------------------------- OT ---------------------------------------

  Step     Update method      Time    Convergence         Total energy    Change
  ------------------------------------------------------------------------------
  Decoupling Energy:                                               0.0436562741
  Recoupling Energy:                                              -0.0063494342
     1 OT DIIS     0.15E+00    1.0     0.00000182      -112.6112974748 -1.13E+02
  Decoupling Energy:                                               0.0436561268
  Recoupling Energy:                                              -0.0063494341
     2 OT DIIS     0.15E+00    1.3     0.00000240      -112.6112974763 -1.51E-09
  Decoupling Energy:                                               0.0436563219
  Recoupling Energy:                                              -0.0063494343
     3 OT DIIS     0.15E+00    1.3     0.00000182      -112.6112974769 -5.96E-10
  Decoupling Energy:                                               0.0436561686
  Recoupling Energy:                                              -0.0063494341
     4 OT DIIS     0.15E+00    1.3     0.00000200      -112.6112974776 -6.72E-10
  Decoupling Energy:                                               0.0436562000
  Recoupling Energy:                                              -0.0063494342
     5 OT DIIS     0.15E+00    1.3     0.00000079      -112.6112974785 -8.90E-10

  *** SCF run converged in     5 steps ***


  Electronic density on regular grids:        -58.0000000031       -0.0000000031
  Core density on regular grids:               59.0000000000       -0.0000000000
  Total charge density on r-space grids:        0.9999999969
  Total charge density g-space grids:           0.9999999969

  Overlap energy of the core charge distribution:               0.00000276462327
  Self energy of the core charge distribution:               -262.49982108018179
  Core Hamiltonian energy:                                     77.82713604626807
  Hartree energy:                                             108.26024348643062
  Exchange-correlation energy:                                -27.74149564726775
  QM/MM Electrostatic energy:                                  -8.45736304837513

  Total energy:                                              -112.61129747850271
  Decoupling Energy:                                               0.0436562428
  Recoupling Energy:                                              -0.0063494344

 ENERGY| Total FORCE_EVAL ( QMMM ) energy [a.u.]:           -574.282125877959515

 MD_INI| MD initialization
 MD_INI| Potential energy [hartree]                          -0.574282125878E+03
 MD_INI| Total kinetic energy [hartree]                       0.215076797492E+03
 MD_INI| QM kinetic energy [hartree]                          0.263607482367E-01
 MD_INI| Total temperature [K]                                        300.000000
 MD_INI| QM temperature [K]                                           264.255746
 MD_INI| Cell volume [bohr^3]                                 9.853827160554E+06
 MD_INI| Cell volume [ang^3]                                  1.460186515536E+06
 MD_INI| Cell lengths [bohr]      2.39870119E+02  2.39870119E+02  1.71258698E+02
 MD_INI| Cell lengths [ang]       1.26933800E+02  1.26933800E+02  9.06262000E+01
 MD_INI| Cell angles [deg]        9.00000000E+01  9.00000000E+01  9.00000000E+01

  Translating the system in order to center the QM fragment in the QM box.

 Number of electrons:                                                         58
 Number of occupied orbitals:                                                 29
 Number of molecular orbitals:                                                29

 Number of orbital functions:                                                185
 Number of independent orbital functions:                                    185

 Extrapolation method: ASPC


 SCF WAVEFUNCTION OPTIMIZATION

  ----------------------------------- OT ---------------------------------------
  Minimizer      : DIIS                : direct inversion
                                         in the iterative subspace
                                         using   7 DIIS vectors
                                         safer DIIS on
  Preconditioner : FULL_ALL            : diagonalization, state selective
  Precond_solver : DEFAULT
  stepsize       :    0.15000000                  energy_gap     :    0.08000000
  eps_taylor     :   0.10000E-15                  max_taylor     :             4
  ----------------------------------- OT ---------------------------------------

  Step     Update method      Time    Convergence         Total energy    Change
  ------------------------------------------------------------------------------
  Decoupling Energy:                                               0.0436638312
  Recoupling Energy:                                              -0.0063493931
     1 OT DIIS     0.15E+00    1.0     0.00128847      -112.5701658559 -1.13E+02
  Decoupling Energy:                                               0.0435725349
  Recoupling Energy:                                              -0.0063490919
     2 OT DIIS     0.15E+00    1.3     0.00117277      -112.5707957168 -6.30E-04
  Decoupling Energy:                                               0.0436794857
  Recoupling Energy:                                              -0.0063494033
     3 OT DIIS     0.15E+00    1.3     0.00106621      -112.5709080939 -1.12E-04
  Decoupling Energy:                                               0.0436555304
  Recoupling Energy:                                              -0.0063493377
     4 OT DIIS     0.15E+00    1.3     0.00054258      -112.5710430825 -1.35E-04
  Decoupling Energy:                                               0.0436136304
  Recoupling Energy:                                              -0.0063492191
     5 OT DIIS     0.15E+00    1.3     0.00042770      -112.5710771372 -3.41E-05
  Decoupling Energy:                                               0.0436405133
  Recoupling Energy:                                              -0.0063492662
     6 OT DIIS     0.15E+00    1.3     0.00015610      -112.5710919046 -1.48E-05
  Decoupling Energy:                                               0.0436362635
  Recoupling Energy:                                              -0.0063493091
     7 OT DIIS     0.15E+00    1.3     0.00010447      -112.5710969845 -5.08E-06
  Decoupling Energy:                                               0.0436367088
  Recoupling Energy:                                              -0.0063492782
     8 OT DIIS     0.15E+00    1.3     0.00006947      -112.5711018745 -4.89E-06
  Decoupling Energy:                                               0.0436342406
  Recoupling Energy:                                              -0.0063492680
     9 OT DIIS     0.15E+00    1.3     0.00005887      -112.5711079603 -6.09E-06
  Decoupling Energy:                                               0.0436357469
  Recoupling Energy:                                              -0.0063492717
    10 OT DIIS     0.15E+00    1.3     0.00005134      -112.5711127530 -4.79E-06
  Decoupling Energy:                                               0.0436354455
  Recoupling Energy:                                              -0.0063492607
    11 OT DIIS     0.15E+00    1.3     0.00004543      -112.5711155149 -2.76E-06
  Decoupling Energy:                                               0.0436337136
  Recoupling Energy:                                              -0.0063492487
    12 OT DIIS     0.15E+00    1.3     0.00004713      -112.5711177162 -2.20E-06
  Decoupling Energy:                                               0.0436330885
  Recoupling Energy:                                              -0.0063492432
    13 OT DIIS     0.15E+00    1.3     0.00004290      -112.5711188527 -1.14E-06
  Decoupling Energy:                                               0.0436360387
  Recoupling Energy:                                              -0.0063492432
    14 OT DIIS     0.15E+00    1.3     0.00005298      -112.5711204729 -1.62E-06
  Decoupling Energy:                                               0.0436334052
  Recoupling Energy:                                              -0.0063492363
    15 OT DIIS     0.15E+00    1.3     0.00003866      -112.5711231586 -2.69E-06
  Decoupling Energy:                                               0.0436327090
  Recoupling Energy:                                              -0.0063492116
    16 OT DIIS     0.15E+00    1.3     0.00003481      -112.5711248024 -1.64E-06
  Decoupling Energy:                                               0.0436311761
  Recoupling Energy:                                              -0.0063491941
    17 OT DIIS     0.15E+00    1.3     0.00002605      -112.5711275091 -2.71E-06
  Decoupling Energy:                                               0.0436315667
  Recoupling Energy:                                              -0.0063491836
    18 OT DIIS     0.15E+00    1.3     0.00002405      -112.5711291987 -1.69E-06
  Decoupling Energy:                                               0.0436302360
  Recoupling Energy:                                              -0.0063491683
    19 OT DIIS     0.15E+00    1.3     0.00001910      -112.5711300853 -8.87E-07
  Decoupling Energy:                                               0.0436280570
  Recoupling Energy:                                              -0.0063491582
    20 OT DIIS     0.15E+00    1.3     0.00002582      -112.5711305510 -4.66E-07
  Decoupling Energy:                                               0.0436288817
  Recoupling Energy:                                              -0.0063491549
    21 OT DIIS     0.15E+00    1.3     0.00001507      -112.5711306194 -6.85E-08
  Decoupling Energy:                                               0.0436298686
  Recoupling Energy:                                              -0.0063491547
    22 OT DIIS     0.15E+00    1.3     0.00001828      -112.5711307061 -8.66E-08
  Decoupling Energy:                                               0.0436285336
  Recoupling Energy:                                              -0.0063491528
    23 OT DIIS     0.15E+00    1.3     0.00001011      -112.5711307507 -4.46E-08
  Decoupling Energy:                                               0.0436284905
  Recoupling Energy:                                              -0.0063491486
    24 OT DIIS     0.15E+00    1.3     0.00000640      -112.5711307616 -1.09E-08
  Decoupling Energy:                                               0.0436283001
  Recoupling Energy:                                              -0.0063491476
    25 OT DIIS     0.15E+00    1.3     0.00000372      -112.5711307575  4.06E-09
  Decoupling Energy:                                               0.0436284452
  Recoupling Energy:                                              -0.0063491484
    26 OT DIIS     0.15E+00    1.3     0.00000312      -112.5711307615 -3.97E-09
  Decoupling Energy:                                               0.0436283447
  Recoupling Energy:                                              -0.0063491479
    27 OT DIIS     0.15E+00    1.3     0.00000280      -112.5711307613  1.61E-10
  Decoupling Energy:                                               0.0436282353
  Recoupling Energy:                                              -0.0063491479
    28 OT DIIS     0.15E+00    1.3     0.00000291      -112.5711307634 -2.02E-09
  Decoupling Energy:                                               0.0436283402
  Recoupling Energy:                                              -0.0063491483
    29 OT DIIS     0.15E+00    1.3     0.00000257      -112.5711307684 -5.01E-09
  Decoupling Energy:                                               0.0436285257
  Recoupling Energy:                                              -0.0063491490
    30 OT DIIS     0.15E+00    1.3     0.00000329      -112.5711307713 -2.95E-09
  Decoupling Energy:                                               0.0436283637
  Recoupling Energy:                                              -0.0063491495
    31 OT DIIS     0.15E+00    1.3     0.00000237      -112.5711307782 -6.90E-09
  Decoupling Energy:                                               0.0436283409
  Recoupling Energy:                                              -0.0063491485
    32 OT DIIS     0.15E+00    1.3     0.00000230      -112.5711307786 -3.39E-10
  Decoupling Energy:                                               0.0436284000
  Recoupling Energy:                                              -0.0063491498
    33 OT DIIS     0.15E+00    1.3     0.00000153      -112.5711307863 -7.69E-09
  Decoupling Energy:                                               0.0436284855
  Recoupling Energy:                                              -0.0063491505
    34 OT DIIS     0.15E+00    1.3     0.00000139      -112.5711307900 -3.73E-09
  Decoupling Energy:                                               0.0436284815
  Recoupling Energy:                                              -0.0063491508
    35 OT DIIS     0.15E+00    1.3     0.00000114      -112.5711307932 -3.19E-09
  Decoupling Energy:                                               0.0436284927
  Recoupling Energy:                                              -0.0063491515
    36 OT DIIS     0.15E+00    1.3     0.00000117      -112.5711307966 -3.42E-09
  Decoupling Energy:                                               0.0436285696
  Recoupling Energy:                                              -0.0063491519
    37 OT DIIS     0.15E+00    1.3     0.00000143      -112.5711307977 -1.06E-09
  Decoupling Energy:                                               0.0436286739
  Recoupling Energy:                                              -0.0063491525
    38 OT DIIS     0.15E+00    1.3     0.00000144      -112.5711307990 -1.29E-09
  Decoupling Energy:                                               0.0436285928
  Recoupling Energy:                                              -0.0063491528
    39 OT DIIS     0.15E+00    1.3     0.00000072      -112.5711307995 -5.70E-10

  *** SCF run converged in    39 steps ***


  Electronic density on regular grids:        -57.9999999985        0.0000000015
  Core density on regular grids:               59.0000000000       -0.0000000000
  Total charge density on r-space grids:        1.0000000015
  Total charge density g-space grids:           1.0000000015

  Overlap energy of the core charge distribution:               0.00000254932108
  Self energy of the core charge distribution:               -262.49982108018179
  Core Hamiltonian energy:                                     77.74842964721896
  Hartree energy:                                             108.31580476402813
  Exchange-correlation energy:                                -27.71946815211470
  QM/MM Electrostatic energy:                                  -8.41607852779627

  Total energy:                                              -112.57113079952458
  Decoupling Energy:                                               0.0436285925
  Recoupling Energy:                                              -0.0063491525

 ENERGY| Total FORCE_EVAL ( QMMM ) energy [a.u.]:           -552.394403095294138

 MD| ***************************************************************************
 MD| Step number                                                               1
 MD| Time [fs]                                                          1.000000
 MD| Conserved quantity [hartree]                            -0.353696654773E+03
 MD| ---------------------------------------------------------------------------
 MD|                                          Instantaneous             Averages
 MD| CPU time per MD step [s]                    118.005396           118.005396
 MD| Energy drift per atom [K]           0.115255886750E+02   0.000000000000E+00
 MD| Potential energy [hartree]         -0.552394403095E+03  -0.552394403095E+03
 MD| Total kinetic energy [hartree]      0.198697748323E+03   0.198697748323E+03
 MD| QM kinetic energy [hartree]         0.283943544450E-01   0.283943544450E-01
 MD| Total temperature [K]                       277.153673           277.153673
 MD| QM temperature [K]                          284.641818           284.641818
 MD| ***************************************************************************

 -------------------------------------------------------------------------------
 -                                                                             -
 -                                DBCSR STATISTICS                             -
 -                                                                             -
 -------------------------------------------------------------------------------
 COUNTER                                    TOTAL       BLAS       SMM       ACC
 flops     5 x     5 x    29              4593600     100.0%      0.0%      0.0%
 flops    10 x    29 x    29              7468080     100.0%      0.0%      0.0%
 flops    10 x    29 x    90              9604800     100.0%      0.0%      0.0%
 flops    13 x     5 x    29              9952800     100.0%      0.0%      0.0%
 flops     5 x    13 x    29              9952800     100.0%      0.0%      0.0%
 flops    10 x    29 x    95             10138400     100.0%      0.0%      0.0%
 flops    29 x    29 x    29             12682280     100.0%      0.0%      0.0%
 flops    18 x    29 x    29             13442544     100.0%      0.0%      0.0%
 flops    18 x    29 x    90             17288640     100.0%      0.0%      0.0%
 flops     5 x    29 x     5             17895900     100.0%      0.0%      0.0%
 flops    18 x    29 x    95             18249120     100.0%      0.0%      0.0%
 flops    13 x    29 x    29             24271260     100.0%      0.0%      0.0%
 flops    13 x    13 x    29             25877280     100.0%      0.0%      0.0%
 flops    29 x    29 x    90             26945640     100.0%      0.0%      0.0%
 flops    29 x    29 x    95             28442620     100.0%      0.0%      0.0%
 flops    13 x    29 x    90             31215600     100.0%      0.0%      0.0%
 flops    13 x    29 x    95             32949800     100.0%      0.0%      0.0%
 flops    13 x    29 x     5             42299400     100.0%      0.0%      0.0%
 flops     5 x    29 x    13             42299400     100.0%      0.0%      0.0%
 flops    13 x    29 x    13             99980400     100.0%      0.0%      0.0%
 flops inhomo. stacks                   158145816     100.0%      0.0%      0.0%
 flops total                       643.696180E+06     100.0%      0.0%      0.0%
 flops max/rank                    356.783056E+06     100.0%      0.0%      0.0%
 matmuls inhomo. stacks                      2030     100.0%      0.0%      0.0%
 matmuls total                              62370     100.0%      0.0%      0.0%
 number of processed stacks                 16500     100.0%      0.0%      0.0%
 average stack size                                     3.8       0.0       0.0
 marketing flops                   618.152832E+06
 -------------------------------------------------------------------------------
 # multiplications                            904
 max memory usage/rank               2.298085E+09
 # max total images/rank                        1
 # max 3D layers                                1
 # MPI messages exchanged                    7232
 MPI messages size (bytes):
  total size                        95.363936E+06
  min size                           0.000000E+00
  max size                          72.200000E+03
  average size                      13.186385E+03
 MPI breakdown and total messages size (bytes):
             size <=      128                3978                        0
       128 < size <=     8192                 742                  4992176
      8192 < size <=    32768                1736                 37254560
     32768 < size <=   131072                 776                 53117200
    131072 < size <=  4194304                   0                        0
   4194304 < size <= 16777216                   0                        0
  16777216 < size                               0                        0
 -------------------------------------------------------------------------------
 -                                                                             -
 -                      DBCSR MESSAGE PASSING PERFORMANCE                      -
 -                                                                             -
 -------------------------------------------------------------------------------
 ROUTINE             CALLS      AVE VOLUME [Bytes]
 MP_Bcast               21                     12.
 MP_Allreduce         4908                      8.
 MP_Alltoall          2933                   2947.
 MP_ISend             7224                   5529.
 MP_IRecv             7224                   3670.
 -------------------------------------------------------------------------------

 -------------------------------------------------------------------------------
 -                                                                             -
 -                                GRID STATISTICS                              -
 -                                                                             -
 -------------------------------------------------------------------------------
 LP    KERNEL             BACKEND                              COUNT     PERCENT
 3     collocate ortho    REF                                 229954      23.05%
 3     integrate ortho    REF                                 227084      22.77%
 2     collocate ortho    REF                                 163910      16.43%
 2     integrate ortho    REF                                 156782      15.72%
 4     integrate ortho    REF                                 110123      11.04%
 4     collocate ortho    REF                                 104680      10.50%
 5     integrate ortho    REF                                   4555       0.46%
 0     collocate general  REF                                    168       0.02%
 1     integrate general  REF                                    168       0.02%
 -------------------------------------------------------------------------------

 MEMORY| Estimated peak process memory [MiB]                                2257

 -------------------------------------------------------------------------------
 -                                                                             -
 -                         MESSAGE PASSING PERFORMANCE                         -
 -                                                                             -
 -------------------------------------------------------------------------------

 ROUTINE             CALLS      AVE VOLUME [Bytes]
 MP_Group                8
 MP_Bcast             8548               10563941.
 MP_Allreduce         1241                 307062.
 MP_Sync                13
 MP_Alltoall           912               92549063.
 MP_ISendRecv          828                 962280.
 MP_Wait              1662
 MP_ISend              626                6085571.
 MP_IRecv              624                6103880.
 MP_Recv                 3                  22200.
 -------------------------------------------------------------------------------


 -------------------------------------------------------------------------------
 -                                                                             -
 -                           R E F E R E N C E S                               -
 -                                                                             -
 -------------------------------------------------------------------------------
 
 CP2K version 8.2, the CP2K developers group (2021).
 CP2K is freely available from https://www.cp2k.org/ .

 Kuehne,Thomas D.; Iannuzzi,Marcella; Del Ben,Mauro;
 Rybkin,Vladimir V.; Seewald,Patrick; Stein,Frederick; Laino,Teodoro;
 Khaliullin,Rustam Z.; Schuett,Ole; Schiffmann,Florian; Golze,Dorothea;
 Wilhelm,Jan; Chulkov,Sergey; Bani-Hashemian,Mohammad Hossein;
 Weber,Valery; Borstnik,Urban; Taillefumier,Mathieu;
 Jakobovits,Alice Shoshana; Lazzaro,Alfio; Pabst,Hans; Mueller,Tiziano;
 Schade,Robert; Guidon,Manuel; Andermatt,Samuel; Holmberg,Nico;
 Schenter,Gregory K.; Hehn,Anna; Bussy,Augustin; Belleflamme,Fabian;
 Tabacchi,Gloria; Gloess,Andreas; Lass,Michael; Bethune,Iain;
 Mundy,Christopher J.; Plessl,Christian; Watkins,Matt;
 VandeVondele,Joost; Krack,Matthias; Hutter,Juerg. 
 The Journal of Chemical Physics, 152 (19), (2020). 
 CP2K: An electronic structure and molecular dynamics software package -
 Quickstep: Efficient and accurate electronic structure calculations.
 https://doi.org/10.1063/5.0007045

 Schuett, Ole; Messmer, Peter; Hutter, Juerg; VandeVondele, Joost. 
 Electronic Structure Calculations on Graphics Processing Units, John
 Wiley & Sons, Ltd, 173-190 (2016). 
 GPU-Accelerated Sparse Matrix-Matrix Multiplication for
 Linear Scaling Density Functional Theory.
 https://doi.org/10.1002/9781118670712.ch8

 Borstnik, U; VandeVondele, J; Weber, V; Hutter, J. 
 PARALLEL COMPUTING, 40 (5-6), 47-58 (2014). 
 Sparse matrix multiplication: The distributed block-compressed sparse
 row library.
 https://doi.org/10.1016/j.parco.2014.03.012

 Hutter, J; Iannuzzi, M; Schiffmann, F; VandeVondele, J. 
 WIREs Comput Mol Sci., 4 (1), 15-25 (2014). 
 CP2K: atomistic simulations of condensed matter systems.
 https://doi.org/10.1002/wcms.1159

 Marek, A; Blum, V; Johanni, R; Havu, V; Lang, B; Auckenthaler, T;
 Heinecke, A; Bungartz, H; Lederer, H. 
 Journal of Physics: Condensed Matter, 26 (21), (2014). 
 The ELPA library: scalable parallel eigenvalue solutions for
 electronic structure
 theory and computational science.
 https://doi.org/10.1088/0953-8984/26/21/213201

 VandeVondele, J; Hutter, J. 
 JOURNAL OF CHEMICAL PHYSICS, 127 (11), 114105 (2007). 
 Gaussian basis sets for accurate calculations on molecular systems in
 gas and condensed phases.
 https://doi.org/10.1063/1.2770708

 Kuhne, TD; Krack, M; Mohamed, FR; Parrinello, M. 
 PHYSICAL REVIEW LETTERS, 98 (6), 066401 (2007). 
 Efficient and accurate Car-Parrinello-like approach to
 Born-Oppenheimer molecular dynamics.
 https://doi.org/10.1103/PhysRevLett.98.066401

 Laino, T; Mohamed, F; Laio, A; Parrinello, M. 
 JOURNAL OF CHEMICAL THEORY AND COMPUTATION, 2 (5), 1370-1378 (2006). 
 An efficient linear-scaling electrostatic coupling for treating
 periodic boundary conditions in QM/MM simulations.
 https://doi.org/10.1021/ct6001169

 Laino, T; Mohamed, F; Laio, A; Parrinello, M. 
 JOURNAL OF CHEMICAL THEORY AND COMPUTATION, 1 (6), 1176-1184 (2005). 
 An efficient real space multigrid QM/MM electrostatic coupling.
 https://doi.org/10.1021/ct050123f

 Krack, M. 
 THEORETICAL CHEMISTRY ACCOUNTS, 114 (1-3), 145-152 (2005). 
 Pseudopotentials for H to Kr optimized for gradient-corrected
 exchange-correlation functionals.
 https://doi.org/10.1007/s00214-005-0655-y

 VandeVondele, J; Krack, M; Mohamed, F; Parrinello, M; Chassaing, T;
 Hutter, J. COMPUTER PHYSICS COMMUNICATIONS, 167 (2), 103-128 (2005). 
 QUICKSTEP: Fast and accurate density functional calculations using a
 mixed Gaussian and plane waves approach.
 https://doi.org/10.1016/j.cpc.2004.12.014

 Frigo, M; Johnson, SG. 
 PROCEEDINGS OF THE IEEE, 93 (2), 216-231 (2005). 
 The design and implementation of FFTW3.
 https://doi.org/10.1109/JPROC.2004.840301

 Kolafa, J. 
 JOURNAL OF COMPUTATIONAL CHEMISTRY, 25 (3), 335-342 (2004). 
 Time-reversible always stable predictor-corrector method for molecular dynamics of polarizable molecules.
 https://doi.org/10.1002/jcc.10385

 VandeVondele, J; Hutter, J. 
 JOURNAL OF CHEMICAL PHYSICS, 118 (10), 4365-4369 (2003). 
 An efficient orbital transformation method for electronic structure
 calculations.
 https://doi.org/10.1063/1.1543154

 Hartwigsen, C; Goedecker, S; Hutter, J. 
 PHYSICAL REVIEW B, 58 (7), 3641-3662 (1998). 
 Relativistic separable dual-space Gaussian pseudopotentials from H to Rn.
 https://doi.org/10.1103/PhysRevB.58.3641

 Lippert, G; Hutter, J; Parrinello, M. 
 MOLECULAR PHYSICS, 92 (3), 477-487 (1997). 
 A hybrid Gaussian and plane wave density functional scheme.
 https://doi.org/10.1080/002689797170220

 Goedecker, S; Teter, M; Hutter, J. 
 PHYSICAL REVIEW B, 54 (3), 1703-1710 (1996). 
 Separable dual-space Gaussian pseudopotentials.
 https://doi.org/10.1103/PhysRevB.54.1703

 ESSMANN, U; PERERA, L; BERKOWITZ, ML; DARDEN, T; LEE, H; PEDERSEN, LG. 
 JOURNAL OF CHEMICAL PHYSICS, 103 (19), 8577-8593 (1995). 
 A SMOOTH PARTICLE MESH EWALD METHOD.
 https://doi.org/10.1063/1.470117

 BLOCHL, PE. 
 JOURNAL OF CHEMICAL PHYSICS, 103 (17), 7422-7428 (1995). 
 ELECTROSTATIC DECOUPLING OF PERIODIC IMAGES OF PLANE-WAVE-EXPANDED
 DENSITIES AND DERIVED ATOMIC POINT CHARGES.
 https://doi.org/10.1063/1.470314

 BECKE, AD. PHYSICAL REVIEW A, 38 (6), 3098-3100 (1988). 
 DENSITY-FUNCTIONAL EXCHANGE-ENERGY APPROXIMATION WITH CORRECT
 ASYMPTOTIC-BEHAVIOR.
 https://doi.org/10.1103/PhysRevA.38.3098

 LEE, CT; YANG, WT; PARR, RG. 
 PHYSICAL REVIEW B, 37 (2), 785-789 (1988). 
 DEVELOPMENT OF THE COLLE-SALVETTI CORRELATION-ENERGY FORMULA INTO A
 FUNCTIONAL OF THE ELECTRON-DENSITY.
 https://doi.org/10.1103/PhysRevB.37.785


 -------------------------------------------------------------------------------
 -                                                                             -
 -                                T I M I N G                                  -
 -                                                                             -
 -------------------------------------------------------------------------------
 SUBROUTINE                       CALLS  ASD         SELF TIME        TOTAL TIME
                                MAXIMUM       AVERAGE  MAXIMUM  AVERAGE  MAXIMUM
 CP2K                                 1  1.0    0.103    0.117  175.644  175.645
 qs_mol_dyn_low                       1  2.0    0.006    0.006  119.211  120.624
 velocity_verlet                      1  3.0    0.005    0.005   77.373   77.529
 qs_forces                            2  3.5    0.000    0.000   58.749   58.749
 qs_energies                          2  4.5    0.000    0.000   56.720   56.720
 scf_env_do_scf                       2  5.5    0.000    0.000   55.690   55.690
 qmmm_env_create                      1  2.0    5.956    5.966   54.877   54.878
 scf_env_do_scf_inner_loop           44  6.9    0.001    0.002   53.641   53.643
 fist_init                            1  3.0    0.000    0.000   46.476   46.477
 rebuild_ks_matrix                   46  8.7    0.000    0.000   43.908   43.909
 qs_ks_build_kohn_sham_matrix        46  9.7    0.007    0.007   43.908   43.909
 qs_ks_update_qs_env                 46  7.9    0.000    0.000   41.905   41.906
 pw_transfer                        942 12.4    0.069    0.073   35.947   36.363
 fft_wrap_pw1pw2                    794 13.4    0.009    0.010   35.072   35.502
 fft_wrap_pw1pw2_200                510 14.6    4.478    4.665   34.437   34.901
 qs_vxc_create                       46 10.7    0.001    0.001   29.834   29.836
 xc_vxc_pw_create                    46 11.7    0.915    0.935   29.833   29.835
 qmmm_el_coupling                     2  3.5    0.000    0.000   29.177   29.180
 qmmm_elec_with_gaussian              2  4.5    0.077    0.078   29.174   29.177
 force_field_control                  1  4.0    0.000    0.000   28.850   28.960
 qmmm_elec_with_gaussian_low          2  5.5    0.000    0.000   27.223   27.598
 rdparm_amber_8                       2  6.5   23.490   23.693   26.592   26.660
 fft3d_ps                           794 15.4   16.066   16.995   24.176   24.435
 qmmm_forces                          2  3.5    0.004    0.005   20.381   20.381
 qmmm_forces_with_gaussian            2  4.5    0.084    0.086   20.138   20.187
 qmmm_force_with_gaussian_low         2  5.5    0.000    0.000   18.234   18.283
 topology_control                     1  4.0    0.000    0.000   17.461   17.507
 qmmm_elec_gaussian_low_R             2  6.5    0.000    0.000   17.165   17.275
 qmmm_elec_with_gaussian_LG           2  7.5   17.165   17.275   17.165   17.275
 force_field_pack                     1  5.0    0.004    0.004   15.269   15.420
 qmmm_forces_gaussian_low_R           2  6.5    0.000    0.000   14.351   14.401
 qmmm_forces_with_gaussian_LG         2  7.5   14.351   14.401   14.351   14.401
 xc_rho_set_and_dset_create          46 12.7    0.825    0.853   14.075   14.227
 qs_rho_update_rho                   46  7.9    0.000    0.000   13.906   13.907
 calculate_rho_elec                  46  8.9    0.415    0.416   13.906   13.907
 connectivity_control                 2  4.0    0.000    0.000   13.677   13.685
 read_force_field_amber               1  5.0    0.006    0.006   13.511   13.578
 read_connectivity_amber              1  6.0    0.000    0.000   13.087   13.087
 force_field_pack_ub                  1  6.0   10.980   11.126   10.980   11.126
 qmmm_elec_gaussian_low_G             2  6.5   10.058   10.608   10.058   10.608
 fist_calc_energy_force               2  3.5    0.009    0.009    8.620    8.624
 density_rs2pw                       46  9.9    0.002    0.002    8.178    8.328
 list_control                         2  4.5    0.012    0.013    5.993    6.030
 build_fist_neighbor_lists            1  5.0    0.000    0.000    5.978    6.012
 sum_up_and_integrate                46 10.7    0.130    0.132    5.731    5.733
 integrate_v_rspace                  46 11.7    0.001    0.002    5.601    5.605
 grid_collocate_task_list            46  9.9    5.184    5.247    5.184    5.247
 potential_pw2rs                     46 12.7    0.012    0.012    5.082    5.086
 build_neighbor_lists                 1  6.0    5.060    5.084    5.060    5.084
 qs_ks_ddapc                         46 10.7    0.001    0.001    4.540    4.702
 pw_integral_ab                     974  7.4    4.037    4.121    4.428    4.566
 x_to_yz                            422 16.9    2.308    2.352    4.415    4.552
 mp_alltoall_z22v                   794 17.4    3.734    4.043    3.734    4.043
 qmmm_forces_gaussian_low_G           2  6.5    3.883    3.894    3.883    3.894
 yz_to_x                            372 15.9    2.053    2.106    3.680    3.850
 pw_scatter_p                       422 15.9    3.600    3.621    3.600    3.621
 -------------------------------------------------------------------------------

 The number of warnings for this run is : 0
 
 -------------------------------------------------------------------------------
  **** **** ******  **  PROGRAM ENDED AT                 2021-10-05 11:44:44.325
 ***** ** ***  *** **   PROGRAM RAN ON                                 nid001480
 **    ****   ******    PROGRAM RAN BY                                     hjbio
 ***** **    ** ** **   PROGRAM PROCESS ID                                198922
  **** **  *******  **  PROGRAM STOPPED IN /lus/cls01095/work/d118/d118/hjbio/qm
                                           mm-benchmarking/archer2/CPU/cp2kMD/Cl
                                           C-19/1STEPS/1NODES/32CPN/8THREADS
