 DBCSR| CPU Multiplication driver                                           BLAS
 DBCSR| Multrec recursion limit                                              512
 DBCSR| Multiplication stack size                                           1000
 DBCSR| Maximum elements for images                                    UNLIMITED
 DBCSR| Multiplicative factor virtual images                                   1
 DBCSR| Use multiplication densification                                       T
 DBCSR| Multiplication size stacks                                             3
 DBCSR| Use memory pool for CPU allocation                                     F
 DBCSR| Number of 3D layers                                               SINGLE
 DBCSR| Use MPI memory allocation                                              F
 DBCSR| Use RMA algorithm                                                      F
 DBCSR| Use Communication thread                                               T
 DBCSR| Communication thread load                                             75
 DBCSR| MPI: My node id                                                        0
 DBCSR| MPI: Number of nodes                                                   8
 DBCSR| OMP: Current number of threads                                         4
 DBCSR| OMP: Max number of threads                                             4
 DBCSR| Split modifier for TAS multiplication algorithm                  1.0E+00


  **** **** ******  **  PROGRAM STARTED AT               2021-09-01 14:56:13.343
 ***** ** ***  *** **   PROGRAM STARTED ON                             nid001043
 **    ****   ******    PROGRAM STARTED BY                                 hjbio
 ***** **    ** ** **   PROGRAM PROCESS ID                                211380
  **** **  *******  **  PROGRAM STARTED IN /lus/cls01095/work/d118/d118/hjbio/qm
                                           mm-benchmarking/archer2/CPU/cp2kMD/MQ
                                           AE/1STEPS/1NODES/32CPN/4THREADS

 CP2K| version string:                                          CP2K version 8.2
 CP2K| source code revision number:                                  git:310b7ab
 CP2K| cp2kflags: omp libint fftw3 libxc elpa parallel mpi3 scalapack plumed2   
 CP2K| is freely available from                            https://www.cp2k.org/
 CP2K| Program compiled at                          Thu 10 Jun 17:43:51 BST 2021
 CP2K| Program compiled on                                                 uan01
 CP2K| Program compiled for                                              ARCHER2
 CP2K| Data directory path              /work/d118/d118/hjbio/CP2K/cp2k-8.2/data
 CP2K| Input file name                                             mqae-cp2k.inp

 GLOBAL| Force Environment number                                              1
 GLOBAL| Basis set file name                                        BASIS_MOLOPT
 GLOBAL| Potential file name                                           POTENTIAL
 GLOBAL| MM Potential file name                                     MM_POTENTIAL
 GLOBAL| Coordinate file name                                           mqae.pdb
 GLOBAL| Method name                                                        CP2K
 GLOBAL| Project name                                                  MQAE-BLYP
 GLOBAL| Run type                                                             MD
 GLOBAL| FFT library                                                       FFTW3
 GLOBAL| Diagonalization library                                            ELPA
 GLOBAL| Minimum number of eigenvectors for ELPA usage                        16
 GLOBAL| Orthonormality check for eigenvectors                          DISABLED
 GLOBAL| Matrix multiplication library                                    SCALAP
 GLOBAL| All-to-all communication in single precision                          F
 GLOBAL| FFTs using library dependent lengths                                  F
 GLOBAL| Grid backend                                                       AUTO
 GLOBAL| Global print level                                                  LOW
 GLOBAL| MPI I/O enabled                                                       T
 GLOBAL| Total number of message passing processes                             8
 GLOBAL| Number of threads for this process                                    4
 GLOBAL| This output is from process                                           0
 GLOBAL| CPU model name                          AMD EPYC 7742 64-Core Processor
 GLOBAL| CPUID                                                              1002

 MEMORY| system memory details [Kb]
 MEMORY|                        rank 0           min           max       average
 MEMORY| MemTotal            263568576     263568576     263568576     263568576
 MEMORY| MemFree             252778236     252778236     252778236     252778236
 MEMORY| Buffers                166532        166532        166532        166532
 MEMORY| Cached                2192696       2192696       2192696       2192696
 MEMORY| Slab                  2019356       2019356       2019356       2019356
 MEMORY| SReclaimable           566916        566916        566916        566916
 MEMORY| MemLikelyFree       255704380     255704380     255704380     255704380



                      ************* ******** ***********   
                     ************* **********************  
                     ****     **** ****      ***********   
                     ******** ****  *******     ****       
                     *******  ****   *******   ****        
                     ****     ****       ****  ****        
                     ****     **** **********  ****        
                      ****     **** ********    ****       
                     FRONTIERS IN SIMULATION TECHNOLOGY    
                                                           
                        C.J. Mundy, S. Balasubramanian,    
                     Ken Bagchi, J. Hutter, Ari Seitsonen  
                      IFW Kuo, T. Laino, J. VandeVondele   
                                 Version 1.0               

                                                           


 EWALD| Summation is done by:                                               SPME
 EWALD| Alpha parameter [       ANGSTROM^-1]                              0.4000
 EWALD| Real Space Cutoff [          ANGSTROM]                            8.4348
 EWALD| G-space max. Miller index                         80        80        80
 EWALD| Spline interpolation order                                             6

 FORCEFIELD| WARNING: A non Critical ForceField parameter is missing! CP2K GOES!
 FORCEFIELD| Non critical parameters are:Urey-Bradley,Torsions,Impropers, Opbends and 1-4
 FORCEFIELD| All missing parameters will not contribute to the potential energy!
 FORCEFIELD| Activate the print key FF_INFO to have a list of missing parameters

 CHARGE_INFO| Total Charge of the Classical System:                     0.000000

 SPLINE_INFO| Generating 465 splines for NONBONDED14 interactions 
              Due to 30 different atomic kinds
  ...46  ...92  ...138  ...184  ...230  ...276  ...322  ...368  ...414  ...460
 SPLINE_INFO| Number of unique splines computed:            22
 SPLINE_INFO| Done

 SPLINE_INFO| Generating 465 splines for NONBONDED interactions 
              Due to 30 different atomic kinds
  ...46  ...92  ...138  ...184  ...230  ...276  ...322  ...368  ...414  ...460
 SPLINE_INFO| Number of unique splines computed:            22
 SPLINE_INFO| Done

 *******************************************************************************
 *******************************************************************************
 **                                                                           **
 **     #####                         ##              ##                      **
 **    ##   ##            ##          ##              ##                      **
 **   ##     ##                       ##            ######                    **
 **   ##     ##  ##   ##  ##   #####  ##  ##   ####   ##    #####    #####    **
 **   ##     ##  ##   ##  ##  ##      ## ##   ##      ##   ##   ##  ##   ##   **
 **   ##  ## ##  ##   ##  ##  ##      ####     ###    ##   ######   ######    **
 **    ##  ###   ##   ##  ##  ##      ## ##      ##   ##   ##       ##        **
 **     #######   #####   ##   #####  ##  ##  ####    ##    #####   ##        **
 **           ##                                                    ##        **
 **                                                                           **
 **                                                ... make the atoms dance   **
 **                                                                           **
 **            Copyright (C) by CP2K developers group (2000-2021)             **
 **                      J. Chem. Phys. 152, 194103 (2020)                    **
 **                                                                           **
 *******************************************************************************


 TOTAL NUMBERS AND MAXIMUM NUMBERS

  Total number of            - Atomic kinds:                                   4
                             - Atoms:                                         34
                             - Shell sets:                                    34
                             - Shells:                                       138
                             - Primitive Cartesian functions:                238
                             - Cartesian basis functions:                    332
                             - Spherical basis functions:                    314

  Maximum angular momentum of- Orbital basis functions:                        2
                             - Local part of the GTH pseudopotential:          2
                             - Non-local part of the GTH pseudopotential:      0


 SCF PARAMETERS         Density guess:                                   RESTART
                        --------------------------------------------------------
                        max_scf:                                             300
                        max_scf_history:                                       0
                        max_diis:                                              4
                        --------------------------------------------------------
                        eps_scf:                                        1.00E-06
                        eps_scf_history:                                0.00E+00
                        eps_diis:                                       1.00E-01
                        eps_eigval:                                     1.00E-05
                        --------------------------------------------------------
                        level_shift [a.u.]:                                 0.00
                        --------------------------------------------------------
                        No outer SCF

 *******************************************************************************
 *******************************************************************************
 **                                                                           **
 **             #######  ##     ## ##     ## ##     ##                        **
 **            ##     ## ###   ### ###   ### ###   ###                        **
 **            ##     ## #### #### #### #### #### ####                        **
 **            ##     ## ## ### ## ## ### ## ## ### ##                        **
 **            ##  ## ## ##     ## ##     ## ##     ##                        **
 **            ##    ##  ##     ## ##     ## ##     ##  T.Laino and F.Mohamed **
 **             ##### ## ##     ## ##     ## ##     ##  2005 - 2015           **
 **                                                                           **
 **                                                     Calculation Started.. **
 *******************************************************************************
 *******************************************************************************

 MD_PAR| Molecular dynamics protocol (MD input parameters)
 MD_PAR| Ensemble type                                                       NVE
 MD_PAR| Number of time steps                                                  1
 MD_PAR| Time step [fs]                                                 1.000000
 MD_PAR| Temperature [K]                                              300.000000
 MD_PAR| Temperature tolerance [K]                                      0.000000
 MD_PAR| Print MD information every                                    1 step(s)
 MD_PAR| File type   Print frequency [steps]                          File names
 MD_PAR| Coordinates          1                              MQAE-BLYP-pos-1.xyz
 MD_PAR| Velocities           1                              MQAE-BLYP-vel-1.xyz
 MD_PAR| Energies             1                                 MQAE-BLYP-1.ener
 MD_PAR| Dump                20                              MQAE-BLYP-1.restart

 ROT| Rotational analysis information
 ROT| Principal axes and moments of inertia [a.u.]
 ROT|                           1                   2                   3
 ROT| Eigenvalues      8.16955424013E+10   8.26770351780E+10   8.33145263212E+10
 ROT|      x              0.339476722416      0.927826629059     -0.154574581827
 ROT|      y              0.779693760491     -0.369496170761     -0.505519751982
 ROT|      z              0.526149403486     -0.051091351539      0.848855982490
 ROT| Number of rotovibrational vectors                                        6

 DOF| Calculation of degrees of freedom
 DOF| Number of atoms                                                       7186
 DOF| Number of intramolecular constraints                                     0
 DOF| Number of intermolecular constraints                                     0
 DOF| Invariants (translations + rotations)                                    3
 DOF| Degrees of freedom                                                   21555

 DOF| Restraints information
 DOF| Number of intramolecular restraints                                      0
 DOF| Number of intermolecular restraints                                      0

 MD_VEL| Velocities initialization
 MD_VEL| Initial temperature [K]                                      300.000000
 MD_VEL| COM velocity            -0.0000000000     0.0000000000    -0.0000000000

  Translating the system in order to center the QM fragment in the QM box.

 Number of electrons:                                                         94
 Number of occupied orbitals:                                                 47
 Number of molecular orbitals:                                                47

 Number of orbital functions:                                                314
 Number of independent orbital functions:                                    314

 Extrapolation method: initial_guess


 SCF WAVEFUNCTION OPTIMIZATION

  ----------------------------------- OT ---------------------------------------
  Minimizer      : DIIS                : direct inversion
                                         in the iterative subspace
                                         using   7 DIIS vectors
                                         safer DIIS on
  Preconditioner : FULL_ALL            : diagonalization, state selective
  Precond_solver : DEFAULT
  stepsize       :    0.15000000                  energy_gap     :    0.08000000
  eps_taylor     :   0.10000E-15                  max_taylor     :             4
  ----------------------------------- OT ---------------------------------------

  Step     Update method      Time    Convergence         Total energy    Change
  ------------------------------------------------------------------------------
  Decoupling Energy:                                               0.0725225470
  Recoupling Energy:                                              -0.0186086616
     1 OT DIIS     0.15E+00    0.6     0.00000556      -146.8268108731 -1.47E+02
  Decoupling Energy:                                               0.0725225167
  Recoupling Energy:                                              -0.0186086642
     2 OT DIIS     0.15E+00    0.7     0.00000254      -146.8268109193 -4.62E-08
  Decoupling Energy:                                               0.0725223233
  Recoupling Energy:                                              -0.0186086496
     3 OT DIIS     0.15E+00    0.7     0.00000280      -146.8268109254 -6.07E-09
  Decoupling Energy:                                               0.0725224230
  Recoupling Energy:                                              -0.0186086595
     4 OT DIIS     0.15E+00    0.7     0.00000038      -146.8268109292 -3.82E-09

  *** SCF run converged in     4 steps ***


  Electronic density on regular grids:        -93.9999999978        0.0000000022
  Core density on regular grids:               94.9999999999       -0.0000000001
  Total charge density on r-space grids:        1.0000000021
  Total charge density g-space grids:           1.0000000021

  Overlap energy of the core charge distribution:               0.00000599177744
  Self energy of the core charge distribution:               -359.57183942644110
  Core Hamiltonian energy:                                    109.64011022088201
  Hartree energy:                                             145.87568612604025
  Exchange-correlation energy:                                -42.44255599596341
  QM/MM Electrostatic energy:                                  -0.32821784546698

  Total energy:                                              -146.82681092917181
  Decoupling Energy:                                               0.0725224156
  Recoupling Energy:                                              -0.0186086578

 ENERGY| Total FORCE_EVAL ( QMMM ) energy [a.u.]:           -125.503710940007011

 MD_INI| MD initialization
 MD_INI| Potential energy [hartree]                          -0.125503710940E+03
 MD_INI| Total kinetic energy [hartree]                       0.102391057087E+02
 MD_INI| QM kinetic energy [hartree]                          0.538313910515E-01
 MD_INI| Total temperature [K]                                        300.000000
 MD_INI| QM temperature [K]                                           333.305658
 MD_INI| Cell volume [bohr^3]                                 4.911308927827E+05
 MD_INI| Cell volume [ang^3]                                  7.277808868775E+04
 MD_INI| Cell lengths [bohr]      7.88979558E+01  7.88979558E+01  7.88979558E+01
 MD_INI| Cell lengths [ang]       4.17510000E+01  4.17510000E+01  4.17510000E+01
 MD_INI| Cell angles [deg]        9.00000000E+01  9.00000000E+01  9.00000000E+01

  Translating the system in order to center the QM fragment in the QM box.

 Number of electrons:                                                         94
 Number of occupied orbitals:                                                 47
 Number of molecular orbitals:                                                47

 Number of orbital functions:                                                314
 Number of independent orbital functions:                                    314

 Extrapolation method: ASPC


 SCF WAVEFUNCTION OPTIMIZATION

  ----------------------------------- OT ---------------------------------------
  Minimizer      : DIIS                : direct inversion
                                         in the iterative subspace
                                         using   7 DIIS vectors
                                         safer DIIS on
  Preconditioner : FULL_ALL            : diagonalization, state selective
  Precond_solver : DEFAULT
  stepsize       :    0.15000000                  energy_gap     :    0.08000000
  eps_taylor     :   0.10000E-15                  max_taylor     :             4
  ----------------------------------- OT ---------------------------------------

  Step     Update method      Time    Convergence         Total energy    Change
  ------------------------------------------------------------------------------
  Decoupling Energy:                                               0.0725138029
  Recoupling Energy:                                              -0.0186075740
     1 OT DIIS     0.15E+00    0.6     0.00274277      -146.7109266889 -1.47E+02
  Decoupling Energy:                                               0.0723879408
  Recoupling Energy:                                              -0.0186017406
     2 OT DIIS     0.15E+00    0.8     0.00104140      -146.7208966760 -9.97E-03
  Decoupling Energy:                                               0.0724570966
  Recoupling Energy:                                              -0.0186050492
     3 OT DIIS     0.15E+00    0.8     0.00066070      -146.7221387200 -1.24E-03
  Decoupling Energy:                                               0.0723978978
  Recoupling Energy:                                              -0.0186016821
     4 OT DIIS     0.15E+00    0.7     0.00038715      -146.7224086888 -2.70E-04
  Decoupling Energy:                                               0.0724216591
  Recoupling Energy:                                              -0.0186034090
     5 OT DIIS     0.15E+00    0.7     0.00009431      -146.7224796281 -7.09E-05
  Decoupling Energy:                                               0.0724195069
  Recoupling Energy:                                              -0.0186030391
     6 OT DIIS     0.15E+00    0.7     0.00004935      -146.7224837980 -4.17E-06
  Decoupling Energy:                                               0.0724183951
  Recoupling Energy:                                              -0.0186031255
     7 OT DIIS     0.15E+00    0.7     0.00001392      -146.7224850395 -1.24E-06
  Decoupling Energy:                                               0.0724188352
  Recoupling Energy:                                              -0.0186031168
     8 OT DIIS     0.15E+00    0.7     0.00000613      -146.7224851410 -1.02E-07
  Decoupling Energy:                                               0.0724191548
  Recoupling Energy:                                              -0.0186031402
     9 OT DIIS     0.15E+00    0.7     0.00000189      -146.7224851680 -2.69E-08
  Decoupling Energy:                                               0.0724189012
  Recoupling Energy:                                              -0.0186031246
    10 OT DIIS     0.15E+00    0.8     0.00000116      -146.7224851699 -1.99E-09
  Decoupling Energy:                                               0.0724189779
  Recoupling Energy:                                              -0.0186031300
    11 OT DIIS     0.15E+00    0.8     0.00000032      -146.7224851710 -1.04E-09

  *** SCF run converged in    11 steps ***


  Electronic density on regular grids:        -94.0000000006       -0.0000000006
  Core density on regular grids:               94.9999999999       -0.0000000001
  Total charge density on r-space grids:        0.9999999993
  Total charge density g-space grids:           0.9999999993

  Overlap energy of the core charge distribution:               0.00003276526484
  Self energy of the core charge distribution:               -359.57183942644110
  Core Hamiltonian energy:                                    109.82313931882028
  Hartree energy:                                             145.78150468195813
  Exchange-correlation energy:                                -42.49961996739644
  QM/MM Electrostatic energy:                                  -0.25570254319092

  Total energy:                                              -146.72248517098524
  Decoupling Energy:                                               0.0724189898
  Recoupling Energy:                                              -0.0186031293

 ENERGY| Total FORCE_EVAL ( QMMM ) energy [a.u.]:           -154.940146524768664

 MD| ***************************************************************************
 MD| Step number                                                               1
 MD| Time [fs]                                                          1.000000
 MD| Conserved quantity [hartree]                            -0.123933892380E+03
 MD| ---------------------------------------------------------------------------
 MD|                                          Instantaneous             Averages
 MD| CPU time per MD step [s]                     22.985319            22.985319
 MD| Energy drift per atom [K]          -0.380954786663E+03   0.000000000000E+00
 MD| Potential energy [hartree]         -0.154940146525E+03  -0.154940146525E+03
 MD| Total kinetic energy [hartree]      0.310062541447E+02   0.310062541447E+02
 MD| QM kinetic energy [hartree]         0.224429229162E+00   0.224429229162E+00
 MD| Total temperature [K]                       908.465691           908.465691
 MD| QM temperature [K]                         1389.589428          1389.589428
 MD| ***************************************************************************

 -------------------------------------------------------------------------------
 -                                                                             -
 -                                DBCSR STATISTICS                             -
 -                                                                             -
 -------------------------------------------------------------------------------
 COUNTER                                    TOTAL       BLAS       SMM       ACC
 flops     5 x    15 x    15                72000     100.0%      0.0%      0.0%
 flops    13 x    15 x    15               210600     100.0%      0.0%      0.0%
 flops     5 x    32 x    32               327680     100.0%      0.0%      0.0%
 flops    18 x    15 x    15               607500     100.0%      0.0%      0.0%
 flops    15 x    15 x    15               756000     100.0%      0.0%      0.0%
 flops    13 x    32 x    32               958464     100.0%      0.0%      0.0%
 flops    31 x    15 x    15              1046250     100.0%      0.0%      0.0%
 flops    18 x    32 x    15              1296000     100.0%      0.0%      0.0%
 flops    18 x    15 x    32              1296000     100.0%      0.0%      0.0%
 flops    41 x    15 x    15              1383750     100.0%      0.0%      0.0%
 flops    44 x    15 x    15              1485000     100.0%      0.0%      0.0%
 flops    23 x    15 x    15              1552500     100.0%      0.0%      0.0%
 flops    15 x    15 x    32              1612800     100.0%      0.0%      0.0%
 flops    15 x    32 x    15              1612800     100.0%      0.0%      0.0%
 flops    32 x    15 x    15              1612800     100.0%      0.0%      0.0%
 flops     5 x     5 x    15              1938000     100.0%      0.0%      0.0%
 flops    31 x    32 x    15              2232000     100.0%      0.0%      0.0%
 flops    31 x    15 x    32              2232000     100.0%      0.0%      0.0%
 flops    67 x    15 x    15              2261250     100.0%      0.0%      0.0%
 flops    18 x    15 x    72              2643840     100.0%      0.0%      0.0%
 flops    18 x    32 x    32              2764800     100.0%      0.0%      0.0%
 flops    41 x    32 x    15              2952000     100.0%      0.0%      0.0%
 flops    41 x    15 x    32              2952000     100.0%      0.0%      0.0%
 flops    18 x    15 x    85              3121200     100.0%      0.0%      0.0%
 flops    44 x    15 x    32              3168000     100.0%      0.0%      0.0%
 flops    44 x    32 x    15              3168000     100.0%      0.0%      0.0%
 flops    23 x    15 x    32              3312000     100.0%      0.0%      0.0%
 flops    23 x    32 x    15              3312000     100.0%      0.0%      0.0%
 flops    32 x    32 x    15              3440640     100.0%      0.0%      0.0%
 flops    15 x    32 x    32              3440640     100.0%      0.0%      0.0%
 flops    32 x    15 x    32              3440640     100.0%      0.0%      0.0%
 flops    15 x    15 x    72              4017600     100.0%      0.0%      0.0%
 flops     5 x     5 x    32              4134400     100.0%      0.0%      0.0%
 flops    31 x    15 x    72              4553280     100.0%      0.0%      0.0%
 flops    15 x    15 x    85              4743000     100.0%      0.0%      0.0%
 flops    31 x    32 x    32              4761600     100.0%      0.0%      0.0%
 flops    67 x    15 x    32              4824000     100.0%      0.0%      0.0%
 flops    67 x    32 x    15              4824000     100.0%      0.0%      0.0%
 flops     5 x    13 x    15              5335200     100.0%      0.0%      0.0%
 flops    13 x     5 x    15              5335200     100.0%      0.0%      0.0%
 flops    31 x    15 x    85              5375400     100.0%      0.0%      0.0%
 flops    18 x    32 x    72              5640192     100.0%      0.0%      0.0%
 flops    41 x    15 x    72              6022080     100.0%      0.0%      0.0%
 flops    41 x    32 x    32              6297600     100.0%      0.0%      0.0%
 flops    44 x    15 x    72              6462720     100.0%      0.0%      0.0%
 flops    18 x    32 x    85              6658560     100.0%      0.0%      0.0%
 flops    23 x    15 x    72              6756480     100.0%      0.0%      0.0%
 flops    44 x    32 x    32              6758400     100.0%      0.0%      0.0%
 flops    23 x    32 x    32              7065600     100.0%      0.0%      0.0%
 flops    41 x    15 x    85              7109400     100.0%      0.0%      0.0%
 flops    32 x    32 x    32              7340032     100.0%      0.0%      0.0%
 flops    44 x    15 x    85              7629600     100.0%      0.0%      0.0%
 flops    23 x    15 x    85              7976400     100.0%      0.0%      0.0%
 flops     5 x    15 x     5              8448000     100.0%      0.0%      0.0%
 flops    15 x    32 x    72              8570880     100.0%      0.0%      0.0%
 flops    32 x    15 x    72              8570880     100.0%      0.0%      0.0%
 flops    31 x    32 x    72              9713664     100.0%      0.0%      0.0%
 flops    67 x    15 x    72              9840960     100.0%      0.0%      0.0%
 flops    15 x    32 x    85             10118400     100.0%      0.0%      0.0%
 flops    32 x    15 x    85             10118400     100.0%      0.0%      0.0%
 flops    67 x    32 x    32             10291200     100.0%      0.0%      0.0%
 flops     5 x    13 x    32             11381760     100.0%      0.0%      0.0%
 flops    13 x     5 x    32             11381760     100.0%      0.0%      0.0%
 flops    31 x    32 x    85             11467520     100.0%      0.0%      0.0%
 flops    67 x    15 x    85             11617800     100.0%      0.0%      0.0%
 flops    41 x    32 x    72             12847104     100.0%      0.0%      0.0%
 flops    44 x    32 x    72             13787136     100.0%      0.0%      0.0%
 flops    23 x    32 x    72             14413824     100.0%      0.0%      0.0%
 flops    41 x    32 x    85             15166720     100.0%      0.0%      0.0%
 flops    44 x    32 x    85             16276480     100.0%      0.0%      0.0%
 flops    13 x    13 x    15             16472430     100.0%      0.0%      0.0%
 flops    23 x    32 x    85             17016320     100.0%      0.0%      0.0%
 flops     5 x    32 x     5             18022400     100.0%      0.0%      0.0%
 flops    32 x    32 x    72             18284544     100.0%      0.0%      0.0%
 flops    67 x    32 x    72             20994048     100.0%      0.0%      0.0%
 flops    32 x    32 x    85             21585920     100.0%      0.0%      0.0%
 flops     5 x    15 x    13             24710400     100.0%      0.0%      0.0%
 flops    13 x    15 x     5             24710400     100.0%      0.0%      0.0%
 flops    67 x    32 x    85             24784640     100.0%      0.0%      0.0%
 flops    13 x    13 x    32             35141184     100.0%      0.0%      0.0%
 flops     5 x    32 x    13             52715520     100.0%      0.0%      0.0%
 flops    13 x    32 x     5             52715520     100.0%      0.0%      0.0%
 flops    13 x    15 x    13             72277920     100.0%      0.0%      0.0%
 flops    13 x    32 x    13            154192896     100.0%      0.0%      0.0%
 flops inhomo. stacks                   103035280     100.0%      0.0%      0.0%
 flops total                         1.042502E+09     100.0%      0.0%      0.0%
 flops max/rank                    352.332744E+06     100.0%      0.0%      0.0%
 matmuls inhomo. stacks                       572     100.0%      0.0%      0.0%
 matmuls total                             130938     100.0%      0.0%      0.0%
 number of processed stacks                 22542     100.0%      0.0%      0.0%
 average stack size                                     5.8       0.0       0.0
 marketing flops                     1.117856E+09
 -------------------------------------------------------------------------------
 # multiplications                            350
 max memory usage/rank             776.458240E+06
 # max total images/rank                        2
 # max 3D layers                                1
 # MPI messages exchanged                   14000
 MPI messages size (bytes):
  total size                       268.568672E+06
  min size                           0.000000E+00
  max size                         106.760000E+03
  average size                      19.183477E+03
 MPI breakdown and total messages size (bytes):
             size <=      128                6120                        0
       128 < size <=     8192                2096                  9262440
      8192 < size <=    32768                3336                 51583920
     32768 < size <=   131072                2448                207722304
    131072 < size <=  4194304                   0                        0
   4194304 < size <= 16777216                   0                        0
  16777216 < size                               0                        0
 -------------------------------------------------------------------------------

 *** WARNING in dbcsr_mm.F:294 :: Using a non-square number of MPI ranks ***
 *** might lead to poor performance. Used ranks: 8 Suggested: 9 16       ***

 -------------------------------------------------------------------------------
 -                                                                             -
 -                      DBCSR MESSAGE PASSING PERFORMANCE                      -
 -                                                                             -
 -------------------------------------------------------------------------------
 ROUTINE             CALLS      AVE VOLUME [Bytes]
 MP_Bcast               85                     12.
 MP_Allreduce         2007                     10.
 MP_Alltoall          1407                   6744.
 MP_ISend             5210                   9224.
 MP_IRecv             5086                   7927.
 -------------------------------------------------------------------------------

 -------------------------------------------------------------------------------
 -                                                                             -
 -                                GRID STATISTICS                              -
 -                                                                             -
 -------------------------------------------------------------------------------
 LP    KERNEL             BACKEND                              COUNT     PERCENT
 3     collocate ortho    REF                                 479731      24.12%
 3     integrate ortho    REF                                 453190      22.79%
 4     integrate ortho    REF                                 285852      14.37%
 4     collocate ortho    REF                                 260008      13.07%
 2     collocate ortho    REF                                 254143      12.78%
 2     integrate ortho    REF                                 224250      11.28%
 5     integrate ortho    REF                                  30590       1.54%
 0     collocate general  REF                                    544       0.03%
 1     integrate general  REF                                    544       0.03%
 -------------------------------------------------------------------------------

 MEMORY| Estimated peak process memory [MiB]                                 741

 -------------------------------------------------------------------------------
 -                                                                             -
 -                         MESSAGE PASSING PERFORMANCE                         -
 -                                                                             -
 -------------------------------------------------------------------------------

 ROUTINE             CALLS      AVE VOLUME [Bytes]
 MP_Group                8
 MP_Bcast              474                6662185.
 MP_Allreduce          850                 248353.
 MP_Sync                17
 MP_Alltoall           361               26017651.
 MP_ISendRecv          714                 283824.
 MP_Wait              1406
 MP_comm_split           4
 MP_ISend              554                1301526.
 MP_IRecv              552                1305340.
 MP_Recv                 6                  30144.
 -------------------------------------------------------------------------------


 -------------------------------------------------------------------------------
 -                                                                             -
 -                           R E F E R E N C E S                               -
 -                                                                             -
 -------------------------------------------------------------------------------
 
 CP2K version 8.2, the CP2K developers group (2021).
 CP2K is freely available from https://www.cp2k.org/ .

 Kuehne,Thomas D.; Iannuzzi,Marcella; Del Ben,Mauro;
 Rybkin,Vladimir V.; Seewald,Patrick; Stein,Frederick; Laino,Teodoro;
 Khaliullin,Rustam Z.; Schuett,Ole; Schiffmann,Florian; Golze,Dorothea;
 Wilhelm,Jan; Chulkov,Sergey; Bani-Hashemian,Mohammad Hossein;
 Weber,Valery; Borstnik,Urban; Taillefumier,Mathieu;
 Jakobovits,Alice Shoshana; Lazzaro,Alfio; Pabst,Hans; Mueller,Tiziano;
 Schade,Robert; Guidon,Manuel; Andermatt,Samuel; Holmberg,Nico;
 Schenter,Gregory K.; Hehn,Anna; Bussy,Augustin; Belleflamme,Fabian;
 Tabacchi,Gloria; Gloess,Andreas; Lass,Michael; Bethune,Iain;
 Mundy,Christopher J.; Plessl,Christian; Watkins,Matt;
 VandeVondele,Joost; Krack,Matthias; Hutter,Juerg. 
 The Journal of Chemical Physics, 152 (19), (2020). 
 CP2K: An electronic structure and molecular dynamics software package -
 Quickstep: Efficient and accurate electronic structure calculations.
 https://doi.org/10.1063/5.0007045

 Schuett, Ole; Messmer, Peter; Hutter, Juerg; VandeVondele, Joost. 
 Electronic Structure Calculations on Graphics Processing Units, John
 Wiley & Sons, Ltd, 173-190 (2016). 
 GPU-Accelerated Sparse Matrix-Matrix Multiplication for
 Linear Scaling Density Functional Theory.
 https://doi.org/10.1002/9781118670712.ch8

 Borstnik, U; VandeVondele, J; Weber, V; Hutter, J. 
 PARALLEL COMPUTING, 40 (5-6), 47-58 (2014). 
 Sparse matrix multiplication: The distributed block-compressed sparse
 row library.
 https://doi.org/10.1016/j.parco.2014.03.012

 Hutter, J; Iannuzzi, M; Schiffmann, F; VandeVondele, J. 
 WIREs Comput Mol Sci., 4 (1), 15-25 (2014). 
 CP2K: atomistic simulations of condensed matter systems.
 https://doi.org/10.1002/wcms.1159

 Marek, A; Blum, V; Johanni, R; Havu, V; Lang, B; Auckenthaler, T;
 Heinecke, A; Bungartz, H; Lederer, H. 
 Journal of Physics: Condensed Matter, 26 (21), (2014). 
 The ELPA library: scalable parallel eigenvalue solutions for
 electronic structure
 theory and computational science.
 https://doi.org/10.1088/0953-8984/26/21/213201

 VandeVondele, J; Hutter, J. 
 JOURNAL OF CHEMICAL PHYSICS, 127 (11), 114105 (2007). 
 Gaussian basis sets for accurate calculations on molecular systems in
 gas and condensed phases.
 https://doi.org/10.1063/1.2770708

 Kuhne, TD; Krack, M; Mohamed, FR; Parrinello, M. 
 PHYSICAL REVIEW LETTERS, 98 (6), 066401 (2007). 
 Efficient and accurate Car-Parrinello-like approach to
 Born-Oppenheimer molecular dynamics.
 https://doi.org/10.1103/PhysRevLett.98.066401

 Laino, T; Mohamed, F; Laio, A; Parrinello, M. 
 JOURNAL OF CHEMICAL THEORY AND COMPUTATION, 2 (5), 1370-1378 (2006). 
 An efficient linear-scaling electrostatic coupling for treating
 periodic boundary conditions in QM/MM simulations.
 https://doi.org/10.1021/ct6001169

 Laino, T; Mohamed, F; Laio, A; Parrinello, M. 
 JOURNAL OF CHEMICAL THEORY AND COMPUTATION, 1 (6), 1176-1184 (2005). 
 An efficient real space multigrid QM/MM electrostatic coupling.
 https://doi.org/10.1021/ct050123f

 Krack, M. 
 THEORETICAL CHEMISTRY ACCOUNTS, 114 (1-3), 145-152 (2005). 
 Pseudopotentials for H to Kr optimized for gradient-corrected
 exchange-correlation functionals.
 https://doi.org/10.1007/s00214-005-0655-y

 VandeVondele, J; Krack, M; Mohamed, F; Parrinello, M; Chassaing, T;
 Hutter, J. COMPUTER PHYSICS COMMUNICATIONS, 167 (2), 103-128 (2005). 
 QUICKSTEP: Fast and accurate density functional calculations using a
 mixed Gaussian and plane waves approach.
 https://doi.org/10.1016/j.cpc.2004.12.014

 Frigo, M; Johnson, SG. 
 PROCEEDINGS OF THE IEEE, 93 (2), 216-231 (2005). 
 The design and implementation of FFTW3.
 https://doi.org/10.1109/JPROC.2004.840301

 Kolafa, J. 
 JOURNAL OF COMPUTATIONAL CHEMISTRY, 25 (3), 335-342 (2004). 
 Time-reversible always stable predictor-corrector method for molecular dynamics of polarizable molecules.
 https://doi.org/10.1002/jcc.10385

 VandeVondele, J; Hutter, J. 
 JOURNAL OF CHEMICAL PHYSICS, 118 (10), 4365-4369 (2003). 
 An efficient orbital transformation method for electronic structure
 calculations.
 https://doi.org/10.1063/1.1543154

 Hartwigsen, C; Goedecker, S; Hutter, J. 
 PHYSICAL REVIEW B, 58 (7), 3641-3662 (1998). 
 Relativistic separable dual-space Gaussian pseudopotentials from H to Rn.
 https://doi.org/10.1103/PhysRevB.58.3641

 Lippert, G; Hutter, J; Parrinello, M. 
 MOLECULAR PHYSICS, 92 (3), 477-487 (1997). 
 A hybrid Gaussian and plane wave density functional scheme.
 https://doi.org/10.1080/002689797170220

 Goedecker, S; Teter, M; Hutter, J. 
 PHYSICAL REVIEW B, 54 (3), 1703-1710 (1996). 
 Separable dual-space Gaussian pseudopotentials.
 https://doi.org/10.1103/PhysRevB.54.1703

 ESSMANN, U; PERERA, L; BERKOWITZ, ML; DARDEN, T; LEE, H; PEDERSEN, LG. 
 JOURNAL OF CHEMICAL PHYSICS, 103 (19), 8577-8593 (1995). 
 A SMOOTH PARTICLE MESH EWALD METHOD.
 https://doi.org/10.1063/1.470117

 BLOCHL, PE. 
 JOURNAL OF CHEMICAL PHYSICS, 103 (17), 7422-7428 (1995). 
 ELECTROSTATIC DECOUPLING OF PERIODIC IMAGES OF PLANE-WAVE-EXPANDED
 DENSITIES AND DERIVED ATOMIC POINT CHARGES.
 https://doi.org/10.1063/1.470314

 BECKE, AD. PHYSICAL REVIEW A, 38 (6), 3098-3100 (1988). 
 DENSITY-FUNCTIONAL EXCHANGE-ENERGY APPROXIMATION WITH CORRECT
 ASYMPTOTIC-BEHAVIOR.
 https://doi.org/10.1103/PhysRevA.38.3098

 LEE, CT; YANG, WT; PARR, RG. 
 PHYSICAL REVIEW B, 37 (2), 785-789 (1988). 
 DEVELOPMENT OF THE COLLE-SALVETTI CORRELATION-ENERGY FORMULA INTO A
 FUNCTIONAL OF THE ELECTRON-DENSITY.
 https://doi.org/10.1103/PhysRevB.37.785


 -------------------------------------------------------------------------------
 -                                                                             -
 -                                T I M I N G                                  -
 -                                                                             -
 -------------------------------------------------------------------------------
 SUBROUTINE                       CALLS  ASD         SELF TIME        TOTAL TIME
                                MAXIMUM       AVERAGE  MAXIMUM  AVERAGE  MAXIMUM
 CP2K                                 1  1.0    0.006    0.008   24.156   24.157
 qs_mol_dyn_low                       1  2.0    0.003    0.003   23.031   23.098
 velocity_verlet                      1  3.0    0.000    0.000   13.828   13.831
 qs_forces                            2  3.5    0.000    0.000   13.553   13.553
 qs_energies                          2  4.5    0.000    0.000   12.195   12.195
 scf_env_do_scf                       2  5.5    0.000    0.000   11.440   11.441
 scf_env_do_scf_inner_loop           15  6.7    0.000    0.001   10.266   10.267
 rebuild_ks_matrix                   17  8.4    0.000    0.000    9.268    9.269
 qs_ks_build_kohn_sham_matrix        17  9.4    0.003    0.003    9.268    9.269
 qs_ks_update_qs_env                 17  7.7    0.000    0.000    8.081    8.081
 pw_transfer                        362 11.8    0.023    0.024    6.844    6.856
 fft_wrap_pw1pw2                    301 13.0    0.003    0.004    6.660    6.673
 fft_wrap_pw1pw2_200                191 14.2    0.860    0.869    6.556    6.565
 qs_vxc_create                       17 10.4    0.000    0.000    5.615    5.615
 xc_vxc_pw_create                    17 11.4    0.119    0.121    5.615    5.615
 qmmm_el_coupling                     2  3.5    0.000    0.000    4.829    4.864
 qmmm_elec_with_gaussian              2  4.5    0.059    0.061    4.827    4.862
 fft3d_ps                           301 15.0    3.189    3.213    4.789    4.811
 qmmm_forces                          2  3.5    0.000    0.000    3.885    3.885
 qmmm_forces_with_gaussian            2  4.5    0.072    0.074    3.770    3.799
 qmmm_elec_with_gaussian_low          2  5.5    0.000    0.000    3.652    3.728
 qs_rho_update_rho                   17  7.8    0.000    0.000    3.576    3.576
 calculate_rho_elec                  17  8.8    0.045    0.045    3.576    3.576
 qmmm_elec_gaussian_low_G             2  6.5    3.324    3.401    3.324    3.401
 xc_rho_set_and_dset_create          17 12.4    0.197    0.207    2.669    2.678
 qmmm_force_with_gaussian_low         2  5.5    0.000    0.000    2.476    2.485
 sum_up_and_integrate                17 10.4    0.025    0.027    2.193    2.194
 integrate_v_rspace                  17 11.4    0.000    0.001    2.167    2.170
 density_rs2pw                       17  9.8    0.001    0.001    2.039    2.124
 qmmm_forces_gaussian_low_G           2  6.5    2.063    2.072    2.063    2.072
 grid_collocate_task_list            17  9.8    1.430    1.522    1.430    1.522
 pw_integral_ab                     883  7.0    1.459    1.468    1.468    1.480
 rs_pw_transfer                     148 11.6    0.002    0.002    1.285    1.377
 qs_ks_update_qs_env_forces           2  4.5    0.000    0.000    1.189    1.189
 potential_pw2rs                     17 12.4    0.001    0.001    1.170    1.173
 init_scf_loop                        2  6.5    0.000    0.000    1.172    1.173
 pw_restrict_s3                       6  5.5    0.190    0.193    1.063    1.092
 qmmm_env_create                      1  2.0    0.025    0.025    1.047    1.047
 grid_integrate_task_list            17 12.4    0.977    0.988    0.977    0.988
 mp_alltoall_z22v                   301 17.0    0.890    0.931    0.890    0.931
 x_to_yz                            161 16.4    0.376    0.382    0.862    0.888
 qmmm_elec_with_gaussian:spline       2  5.5    0.000    0.000    0.847    0.860
 pw_prolongate_s3                     6  6.5    0.149    0.153    0.847    0.860
 qs_ks_ddapc                         17 10.4    0.000    0.000    0.774    0.775
 rs_pw_transfer_RS2PW_200            19 11.5    0.160    0.182    0.682    0.773
 mp_waitany                         552 12.6    0.665    0.765    0.665    0.765
 yz_to_x                            140 15.6    0.326    0.332    0.731    0.755
 init_cube_info                       8  5.5    0.529    0.585    0.529    0.585
 qs_ks_qmmm_create                    1  3.0    0.000    0.000    0.528    0.584
 pw_derive                          108 12.5    0.565    0.567    0.565    0.567
 fist_init                            1  3.0    0.000    0.001    0.560    0.560
 pw_copy                            247 11.9    0.515    0.523    0.515    0.523
 mp_sum_dm3                          13  5.2    0.459    0.508    0.459    0.508
 pw_gather_p                        140 14.6    0.498    0.508    0.498    0.508
 pw_scatter_p                       161 15.4    0.494    0.499    0.494    0.499
 init_scf_run                         2  5.5    0.000    0.000    0.484    0.484
 scf_env_initial_rho_setup            2  6.5    0.000    0.000    0.484    0.484
 -------------------------------------------------------------------------------

 The number of warnings for this run is : 1
 
 -------------------------------------------------------------------------------
  **** **** ******  **  PROGRAM ENDED AT                 2021-09-01 14:56:37.806
 ***** ** ***  *** **   PROGRAM RAN ON                                 nid001043
 **    ****   ******    PROGRAM RAN BY                                     hjbio
 ***** **    ** ** **   PROGRAM PROCESS ID                                211380
  **** **  *******  **  PROGRAM STOPPED IN /lus/cls01095/work/d118/d118/hjbio/qm
                                           mm-benchmarking/archer2/CPU/cp2kMD/MQ
                                           AE/1STEPS/1NODES/32CPN/4THREADS
