 DBCSR| CPU Multiplication driver                                           BLAS
 DBCSR| Multrec recursion limit                                              512
 DBCSR| Multiplication stack size                                           1000
 DBCSR| Maximum elements for images                                    UNLIMITED
 DBCSR| Multiplicative factor virtual images                                   1
 DBCSR| Use multiplication densification                                       T
 DBCSR| Multiplication size stacks                                             3
 DBCSR| Use memory pool for CPU allocation                                     F
 DBCSR| Number of 3D layers                                               SINGLE
 DBCSR| Use MPI memory allocation                                              F
 DBCSR| Use RMA algorithm                                                      F
 DBCSR| Use Communication thread                                               T
 DBCSR| Communication thread load                                             60
 DBCSR| MPI: My node id                                                        0
 DBCSR| MPI: Number of nodes                                                  64
 DBCSR| OMP: Current number of threads                                         8
 DBCSR| OMP: Max number of threads                                             8
 DBCSR| Split modifier for TAS multiplication algorithm                  1.0E+00


  **** **** ******  **  PROGRAM STARTED AT               2021-09-01 13:44:10.098
 ***** ** ***  *** **   PROGRAM STARTED ON                             nid001691
 **    ****   ******    PROGRAM STARTED BY                                 hjbio
 ***** **    ** ** **   PROGRAM PROCESS ID                                136774
  **** **  *******  **  PROGRAM STARTED IN /lus/cls01095/work/d118/d118/hjbio/qm
                                           mm-benchmarking/archer2/CPU/cp2kMD/CB
                                           D_PHY-PBE0/6STEPS/4NODES/128CPN/8THRE
                                           ADS

 CP2K| version string:                                          CP2K version 8.2
 CP2K| source code revision number:                                  git:310b7ab
 CP2K| cp2kflags: omp libint fftw3 libxc elpa parallel mpi3 scalapack plumed2   
 CP2K| is freely available from                            https://www.cp2k.org/
 CP2K| Program compiled at                          Thu 10 Jun 17:43:51 BST 2021
 CP2K| Program compiled on                                                 uan01
 CP2K| Program compiled for                                              ARCHER2
 CP2K| Data directory path              /work/d118/d118/hjbio/CP2K/cp2k-8.2/data
 CP2K| Input file name                                          CBD_PHY-cp2k.inp

 GLOBAL| Force Environment number                                              1
 GLOBAL| Basis set file name                                           HFX_BASIS
 GLOBAL| Potential file name                                           POTENTIAL
 GLOBAL| MM Potential file name                                     MM_POTENTIAL
 GLOBAL| Coordinate file name                                        CBD_PHY.pdb
 GLOBAL| Method name                                                        CP2K
 GLOBAL| Project name                                               CBD_PHY-PBE0
 GLOBAL| Run type                                                             MD
 GLOBAL| FFT library                                                       FFTW3
 GLOBAL| Diagonalization library                                            ELPA
 GLOBAL| Minimum number of eigenvectors for ELPA usage                        16
 GLOBAL| Orthonormality check for eigenvectors                          DISABLED
 GLOBAL| Matrix multiplication library                                    SCALAP
 GLOBAL| All-to-all communication in single precision                          F
 GLOBAL| FFTs using library dependent lengths                                  F
 GLOBAL| Grid backend                                                       AUTO
 GLOBAL| Global print level                                                  LOW
 GLOBAL| MPI I/O enabled                                                       T
 GLOBAL| Total number of message passing processes                            64
 GLOBAL| Number of threads for this process                                    8
 GLOBAL| This output is from process                                           0
 GLOBAL| CPU model name                          AMD EPYC 7742 64-Core Processor
 GLOBAL| CPUID                                                              1002

 MEMORY| system memory details [Kb]
 MEMORY|                        rank 0           min           max       average
 MEMORY| MemTotal            263568576     263568576     263568576     263568576
 MEMORY| MemFree             247143548     247143548     250181644     249331475
 MEMORY| Buffers                 96308         92060        106088         96777
 MEMORY| Cached                4973956       2387772       4973956       3239567
 MEMORY| Slab                  1786328       1591524       1786328       1656199
 MEMORY| SReclaimable           214020        133576        214020        170913
 MEMORY| MemLikelyFree       252427832     252427832     253273240     252838732



                      ************* ******** ***********   
                     ************* **********************  
                     ****     **** ****      ***********   
                     ******** ****  *******     ****       
                     *******  ****   *******   ****        
                     ****     ****       ****  ****        
                     ****     **** **********  ****        
                      ****     **** ********    ****       
                     FRONTIERS IN SIMULATION TECHNOLOGY    
                                                           
                        C.J. Mundy, S. Balasubramanian,    
                     Ken Bagchi, J. Hutter, Ari Seitsonen  
                      IFW Kuo, T. Laino, J. VandeVondele   
                                 Version 1.0               

                                                           


 EWALD| Summation is done by:                                               SPME
 EWALD| Alpha parameter [       ANGSTROM^-1]                              0.4000
 EWALD| Real Space Cutoff [          ANGSTROM]                            8.4348
 EWALD| G-space max. Miller index                         80        80        80
 EWALD| Spline interpolation order                                             6

 FORCEFIELD| WARNING: A non Critical ForceField parameter is missing! CP2K GOES!
 FORCEFIELD| Non critical parameters are:Urey-Bradley,Torsions,Impropers, Opbends and 1-4
 FORCEFIELD| All missing parameters will not contribute to the potential energy!
 FORCEFIELD| Activate the print key FF_INFO to have a list of missing parameters

 CHARGE_INFO| Total Charge of the Classical System:                    -0.825808

 SPLINE_INFO| Generating 101926 splines for NONBONDED14 interactions 
              Due to 451 different atomic kinds
  ...10192  ...20384  ...30576  ...40768  ...50960  ...61152  ...71344  ...81536  ...91728  ...101920
 SPLINE_INFO| Number of unique splines computed:            301
 SPLINE_INFO| Done

 SPLINE_INFO| Generating 101926 splines for NONBONDED interactions 
              Due to 451 different atomic kinds
  ...10192  ...20384  ...30576  ...40768  ...50960  ...61152  ...71344  ...81536  ...91728  ...101920
 SPLINE_INFO| Number of unique splines computed:            301
 SPLINE_INFO| Done

 *******************************************************************************
 *******************************************************************************
 **                                                                           **
 **     #####                         ##              ##                      **
 **    ##   ##            ##          ##              ##                      **
 **   ##     ##                       ##            ######                    **
 **   ##     ##  ##   ##  ##   #####  ##  ##   ####   ##    #####    #####    **
 **   ##     ##  ##   ##  ##  ##      ## ##   ##      ##   ##   ##  ##   ##   **
 **   ##  ## ##  ##   ##  ##  ##      ####     ###    ##   ######   ######    **
 **    ##  ###   ##   ##  ##  ##      ## ##      ##   ##   ##       ##        **
 **     #######   #####   ##   #####  ##  ##  ####    ##    #####   ##        **
 **           ##                                                    ##        **
 **                                                                           **
 **                                                ... make the atoms dance   **
 **                                                                           **
 **            Copyright (C) by CP2K developers group (2000-2021)             **
 **                      J. Chem. Phys. 152, 194103 (2020)                    **
 **                                                                           **
 *******************************************************************************


 TOTAL NUMBERS AND MAXIMUM NUMBERS

  Total number of            - Atomic kinds:                                   5
                             - Atoms:                                         68
                             - Shell sets:                                   340
                             - Shells:                                       445
                             - Primitive Cartesian functions:                476
                             - Cartesian basis functions:                   1137
                             - Spherical basis functions:                   1067

  Maximum angular momentum of- Orbital basis functions:                        2
                             - Local part of the GTH pseudopotential:          2
                             - Non-local part of the GTH pseudopotential:      0


 SCF PARAMETERS         Density guess:                                   RESTART
                        --------------------------------------------------------
                        max_scf:                                              30
                        max_scf_history:                                       0
                        max_diis:                                              4
                        --------------------------------------------------------
                        eps_scf:                                        1.00E-06
                        eps_scf_history:                                0.00E+00
                        eps_diis:                                       1.00E-01
                        eps_eigval:                                     1.00E-05
                        --------------------------------------------------------
                        level_shift [a.u.]:                                 0.00
                        --------------------------------------------------------
                        Outer loop SCF in use 
                        No variables optimised in outer loop
                        eps_scf                                         1.00E-06
                        max_scf                                               20
                        No outer loop optimization
                        step_size                                       5.00E-01

 *******************************************************************************
 *******************************************************************************
 **                                                                           **
 **             #######  ##     ## ##     ## ##     ##                        **
 **            ##     ## ###   ### ###   ### ###   ###                        **
 **            ##     ## #### #### #### #### #### ####                        **
 **            ##     ## ## ### ## ## ### ## ## ### ##                        **
 **            ##  ## ## ##     ## ##     ## ##     ##                        **
 **            ##    ##  ##     ## ##     ## ##     ##  T.Laino and F.Mohamed **
 **             ##### ## ##     ## ##     ## ##     ##  2005 - 2015           **
 **                                                                           **
 **                                                     Calculation Started.. **
 *******************************************************************************
 *******************************************************************************

 MD_PAR| Molecular dynamics protocol (MD input parameters)
 MD_PAR| Ensemble type                                                       NVE
 MD_PAR| Number of time steps                                                  6
 MD_PAR| Time step [fs]                                                 1.000000
 MD_PAR| Temperature [K]                                              300.000000
 MD_PAR| Temperature tolerance [K]                                      0.000000
 MD_PAR| Print MD information every                                    1 step(s)
 MD_PAR| File type   Print frequency [steps]                          File names
 MD_PAR| Coordinates          1                           CBD_PHY-PBE0-pos-1.xyz
 MD_PAR| Velocities           1                           CBD_PHY-PBE0-vel-1.xyz
 MD_PAR| Energies             1                              CBD_PHY-PBE0-1.ener
 MD_PAR| Dump                20                           CBD_PHY-PBE0-1.restart

 ROT| Rotational analysis information
 ROT| Principal axes and moments of inertia [a.u.]
 ROT|                           1                   2                   3
 ROT| Eigenvalues      1.56283164001E+13   1.56407408488E+13   1.56663418804E+13
 ROT|      x              0.901637047331     -0.018153263569      0.432112362589
 ROT|      y              0.323714777231      0.690893927917     -0.646431994388
 ROT|      z             -0.286808957117      0.722728191915      0.628812040859
 ROT| Number of rotovibrational vectors                                        6

 DOF| Calculation of degrees of freedom
 DOF| Number of atoms                                                     167923
 DOF| Number of intramolecular constraints                                     0
 DOF| Number of intermolecular constraints                                     0
 DOF| Invariants (translations + rotations)                                    3
 DOF| Degrees of freedom                                                  503766

 DOF| Restraints information
 DOF| Number of intramolecular restraints                                      0
 DOF| Number of intermolecular restraints                                      0

 MD_VEL| Velocities initialization
 MD_VEL| Initial temperature [K]                                      300.000000
 MD_VEL| COM velocity            -0.0000000000     0.0000000000     0.0000000000

  Translating the system in order to center the QM fragment in the QM box.

 Number of electrons:                                                        180
 Number of occupied orbitals:                                                 90
 Number of molecular orbitals:                                                90

 Number of orbital functions:                                               1067
 Number of independent orbital functions:                                   1067

 Extrapolation method: initial_guess


 SCF WAVEFUNCTION OPTIMIZATION

  ----------------------------------- OT ---------------------------------------
  Minimizer      : DIIS                : direct inversion
                                         in the iterative subspace
                                         using   7 DIIS vectors
                                         safer DIIS on
  Preconditioner : FULL_ALL            : diagonalization, state selective
  Precond_solver : DEFAULT
  stepsize       :    0.15000000                  energy_gap     :    0.08000000
  eps_taylor     :   0.10000E-15                  max_taylor     :             4
  ----------------------------------- OT ---------------------------------------

  Step     Update method      Time    Convergence         Total energy    Change
  ------------------------------------------------------------------------------
  Decoupling Energy:                                               0.0370647021
  Recoupling Energy:                                              -0.0063741479
     1 OT DIIS     0.15E+00    8.7     0.00129057      -255.9257316521 -2.56E+02
  Decoupling Energy:                                               0.0370576004
  Recoupling Energy:                                              -0.0063740314
     2 OT DIIS     0.15E+00    0.7     0.00057761      -255.9419521977 -1.62E-02
  Decoupling Energy:                                               0.0369596417
  Recoupling Energy:                                              -0.0063730135
     3 OT DIIS     0.15E+00    1.0     0.00038348      -255.9451217318 -3.17E-03
  Decoupling Energy:                                               0.0369795470
  Recoupling Energy:                                              -0.0063732416
     4 OT DIIS     0.15E+00    0.7     0.00009866      -255.9458275768 -7.06E-04
  Decoupling Energy:                                               0.0369716948
  Recoupling Energy:                                              -0.0063731487
     5 OT DIIS     0.15E+00    1.0     0.00003992      -255.9458779686 -5.04E-05
  Decoupling Energy:                                               0.0369737640
  Recoupling Energy:                                              -0.0063731649
     6 OT DIIS     0.15E+00    0.8     0.00001793      -255.9458894170 -1.14E-05
  Decoupling Energy:                                               0.0369741808
  Recoupling Energy:                                              -0.0063731680
     7 OT DIIS     0.15E+00    1.4     0.00000621      -255.9458922938 -2.88E-06
  Decoupling Energy:                                               0.0369727127
  Recoupling Energy:                                              -0.0063731518
     8 OT DIIS     0.15E+00    0.9     0.00000242      -255.9458926328 -3.39E-07
  Decoupling Energy:                                               0.0369731061
  Recoupling Energy:                                              -0.0063731556
     9 OT DIIS     0.15E+00    0.8     0.00000111      -255.9458926822 -4.94E-08
  Decoupling Energy:                                               0.0369728228
  Recoupling Energy:                                              -0.0063731526
    10 OT DIIS     0.15E+00    0.9     0.00000048      -255.9458926924 -1.02E-08

  *** SCF run converged in    10 steps ***


  Electronic density on regular grids:       -179.9999999999        0.0000000001
  Core density on regular grids:              180.9999999999       -0.0000000001
  Total charge density on r-space grids:        1.0000000000
  Total charge density g-space grids:           1.0000000000

  Overlap energy of the core charge distribution:               0.00001951532734
  Self energy of the core charge distribution:               -615.71576003586028
  Core Hamiltonian energy:                                    191.01363220817760
  Hartree energy:                                             248.20663869015954
  Exchange-correlation energy:                                -61.38430761263333
  Hartree-Fock Exchange energy:                               -18.10821018492820
  QM/MM Electrostatic energy:                                   0.04209472735354

  Total energy:                                              -255.94589269240379

  outer SCF iter =    1 RMS gradient =   0.48E-06 energy =       -255.9458926924
  outer SCF loop converged in   1 iterations or   10 steps

  Decoupling Energy:                                               0.0369728028
  Recoupling Energy:                                              -0.0063731523

 ENERGY| Total FORCE_EVAL ( QMMM ) energy [a.u.]:          -1088.110859624497607

 MD_INI| MD initialization
 MD_INI| Potential energy [hartree]                          -0.108811085962E+04
 MD_INI| Total kinetic energy [hartree]                       0.239300084734E+03
 MD_INI| QM kinetic energy [hartree]                          0.106639360339E+00
 MD_INI| Total temperature [K]                                        300.000000
 MD_INI| QM temperature [K]                                           330.137318
 MD_INI| Cell volume [bohr^3]                                 1.137316355424E+07
 MD_INI| Cell volume [ang^3]                                  1.685328937712E+06
 MD_INI| Cell lengths [bohr]      2.24884969E+02  2.24884969E+02  2.24884969E+02
 MD_INI| Cell lengths [ang]       1.19004000E+02  1.19004000E+02  1.19004000E+02
 MD_INI| Cell angles [deg]        9.00000000E+01  9.00000000E+01  9.00000000E+01

  Translating the system in order to center the QM fragment in the QM box.

 Number of electrons:                                                        180
 Number of occupied orbitals:                                                 90
 Number of molecular orbitals:                                                90

 Number of orbital functions:                                               1067
 Number of independent orbital functions:                                   1067

 Extrapolation method: ASPC


 SCF WAVEFUNCTION OPTIMIZATION

  ----------------------------------- OT ---------------------------------------
  Minimizer      : DIIS                : direct inversion
                                         in the iterative subspace
                                         using   7 DIIS vectors
                                         safer DIIS on
  Preconditioner : FULL_ALL            : diagonalization, state selective
  Precond_solver : DEFAULT
  stepsize       :    0.15000000                  energy_gap     :    0.08000000
  eps_taylor     :   0.10000E-15                  max_taylor     :             4
  ----------------------------------- OT ---------------------------------------

  Step     Update method      Time    Convergence         Total energy    Change
  ------------------------------------------------------------------------------
  Decoupling Energy:                                               0.0370014667
  Recoupling Energy:                                              -0.0063734172
     1 OT DIIS     0.15E+00    3.1     0.00075899      -255.7182133707 -2.56E+02
  Decoupling Energy:                                               0.0370082385
  Recoupling Energy:                                              -0.0063735355
     2 OT DIIS     0.15E+00    1.0     0.00032685      -255.7237312495 -5.52E-03
  Decoupling Energy:                                               0.0370087411
  Recoupling Energy:                                              -0.0063735590
     3 OT DIIS     0.15E+00    0.8     0.00019068      -255.7247685804 -1.04E-03
  Decoupling Energy:                                               0.0370199882
  Recoupling Energy:                                              -0.0063736817
     4 OT DIIS     0.15E+00    1.6     0.00006054      -255.7249610173 -1.92E-04
  Decoupling Energy:                                               0.0370216762
  Recoupling Energy:                                              -0.0063737045
     5 OT DIIS     0.15E+00    1.2     0.00001954      -255.7249775821 -1.66E-05
  Decoupling Energy:                                               0.0370210004
  Recoupling Energy:                                              -0.0063736984
     6 OT DIIS     0.15E+00    1.2     0.00000817      -255.7249798404 -2.26E-06
  Decoupling Energy:                                               0.0370221928
  Recoupling Energy:                                              -0.0063737124
     7 OT DIIS     0.15E+00    1.1     0.00000308      -255.7249803025 -4.62E-07
  Decoupling Energy:                                               0.0370222381
  Recoupling Energy:                                              -0.0063737132
     8 OT DIIS     0.15E+00    1.2     0.00000136      -255.7249803798 -7.72E-08
  Decoupling Energy:                                               0.0370224658
  Recoupling Energy:                                              -0.0063737159
     9 OT DIIS     0.15E+00    1.7     0.00000058      -255.7249803955 -1.57E-08

  *** SCF run converged in     9 steps ***


  Electronic density on regular grids:       -180.0000000000        0.0000000000
  Core density on regular grids:              180.9999999999       -0.0000000001
  Total charge density on r-space grids:        0.9999999999
  Total charge density g-space grids:           0.9999999999

  Overlap energy of the core charge distribution:               0.00002422739645
  Self energy of the core charge distribution:               -615.71576003586028
  Core Hamiltonian energy:                                    191.21095004762822
  Hartree energy:                                             248.07774803508423
  Exchange-correlation energy:                                -61.42683493034820
  Hartree-Fock Exchange energy:                               -18.12283148155291
  QM/MM Electrostatic energy:                                   0.25172374218294

  Total energy:                                              -255.72498039546954

  outer SCF iter =    1 RMS gradient =   0.58E-06 energy =       -255.7249803955
  outer SCF loop converged in   1 iterations or    9 steps

  Decoupling Energy:                                               0.0370224943
  Recoupling Energy:                                              -0.0063737164

 ENERGY| Total FORCE_EVAL ( QMMM ) energy [a.u.]:          -1059.962356565088839

 MD| ***************************************************************************
 MD| Step number                                                               1
 MD| Time [fs]                                                          1.000000
 MD| Conserved quantity [hartree]                            -0.841461427163E+03
 MD| ---------------------------------------------------------------------------
 MD|                                          Instantaneous             Averages
 MD| CPU time per MD step [s]                     67.370674            67.370674
 MD| Energy drift per atom [K]           0.138202491075E+02   0.000000000000E+00
 MD| Potential energy [hartree]         -0.105996235657E+04  -0.105996235657E+04
 MD| Total kinetic energy [hartree]      0.218500929402E+03   0.218500929402E+03
 MD| QM kinetic energy [hartree]         0.121347276780E+00   0.121347276780E+00
 MD| Total temperature [K]                       273.925013           273.925013
 MD| QM temperature [K]                          375.670525           375.670525
 MD| ***************************************************************************

  Translating the system in order to center the QM fragment in the QM box.

 Number of electrons:                                                        180
 Number of occupied orbitals:                                                 90
 Number of molecular orbitals:                                                90

 Number of orbital functions:                                               1067
 Number of independent orbital functions:                                   1067

 Extrapolation method: ASPC


 SCF WAVEFUNCTION OPTIMIZATION

  ----------------------------------- OT ---------------------------------------
  Minimizer      : DIIS                : direct inversion
                                         in the iterative subspace
                                         using   7 DIIS vectors
                                         safer DIIS on
  Preconditioner : FULL_ALL            : diagonalization, state selective
  Precond_solver : DEFAULT
  stepsize       :    0.15000000                  energy_gap     :    0.08000000
  eps_taylor     :   0.10000E-15                  max_taylor     :             4
  ----------------------------------- OT ---------------------------------------

  Step     Update method      Time    Convergence         Total energy    Change
  ------------------------------------------------------------------------------
  Decoupling Energy:                                               0.0370781897
  Recoupling Energy:                                              -0.0063743357
     1 OT DIIS     0.15E+00    2.8     0.00029255      -255.3622521414 -2.55E+02
  Decoupling Energy:                                               0.0370714471
  Recoupling Energy:                                              -0.0063742686
     2 OT DIIS     0.15E+00    1.1     0.00012379      -255.3630879087 -8.36E-04
  Decoupling Energy:                                               0.0370747191
  Recoupling Energy:                                              -0.0063743003
     3 OT DIIS     0.15E+00    1.2     0.00005679      -255.3632552302 -1.67E-04
  Decoupling Energy:                                               0.0370720767
  Recoupling Energy:                                              -0.0063742776
     4 OT DIIS     0.15E+00    1.1     0.00001757      -255.3632740211 -1.88E-05
  Decoupling Energy:                                               0.0370725476
  Recoupling Energy:                                              -0.0063742816
     5 OT DIIS     0.15E+00    0.9     0.00000682      -255.3632755480 -1.53E-06
  Decoupling Energy:                                               0.0370729646
  Recoupling Energy:                                              -0.0063742866
     6 OT DIIS     0.15E+00    1.0     0.00000313      -255.3632758057 -2.58E-07
  Decoupling Energy:                                               0.0370729495
  Recoupling Energy:                                              -0.0063742866
     7 OT DIIS     0.15E+00    1.3     0.00000105      -255.3632758667 -6.10E-08
  Decoupling Energy:                                               0.0370730074
  Recoupling Energy:                                              -0.0063742873
     8 OT DIIS     0.15E+00    1.2     0.00000048      -255.3632758768 -1.02E-08

  *** SCF run converged in     8 steps ***


  Electronic density on regular grids:       -180.0000000000       -0.0000000000
  Core density on regular grids:              180.9999999999       -0.0000000001
  Total charge density on r-space grids:        0.9999999998
  Total charge density g-space grids:           0.9999999998

  Overlap energy of the core charge distribution:               0.00005088944778
  Self energy of the core charge distribution:               -615.71576003586028
  Core Hamiltonian energy:                                    191.44418549684011
  Hartree energy:                                             247.94136728105195
  Exchange-correlation energy:                                -61.47332436563630
  Hartree-Fock Exchange energy:                               -18.13880639891656
  QM/MM Electrostatic energy:                                   0.57901125625172

  Total energy:                                              -255.36327587682155

  outer SCF iter =    1 RMS gradient =   0.48E-06 energy =       -255.3632758768
  outer SCF loop converged in   1 iterations or    8 steps

  Decoupling Energy:                                               0.0370730241
  Recoupling Energy:                                              -0.0063742875

 ENERGY| Total FORCE_EVAL ( QMMM ) energy [a.u.]:          -1061.235329266726239

 MD| ***************************************************************************
 MD| Step number                                                               2
 MD| Time [fs]                                                          2.000000
 MD| Conserved quantity [hartree]                            -0.842817774830E+03
 MD| ---------------------------------------------------------------------------
 MD|                                          Instantaneous             Averages
 MD| CPU time per MD step [s]                     29.120374            48.245524
 MD| Energy drift per atom [K]           0.112696741003E+02   0.563483705016E+01
 MD| Potential energy [hartree]         -0.106123532927E+04  -0.106059884292E+04
 MD| Total kinetic energy [hartree]      0.218417554437E+03   0.218459241919E+03
 MD| QM kinetic energy [hartree]         0.111577913451E+00   0.116462595115E+00
 MD| Total temperature [K]                       273.820489           273.872751
 MD| QM temperature [K]                          345.426239           360.548382
 MD| ***************************************************************************

  Translating the system in order to center the QM fragment in the QM box.

 Number of electrons:                                                        180
 Number of occupied orbitals:                                                 90
 Number of molecular orbitals:                                                90

 Number of orbital functions:                                               1067
 Number of independent orbital functions:                                   1067

 Extrapolation method: ASPC


 SCF WAVEFUNCTION OPTIMIZATION

  ----------------------------------- OT ---------------------------------------
  Minimizer      : DIIS                : direct inversion
                                         in the iterative subspace
                                         using   7 DIIS vectors
                                         safer DIIS on
  Preconditioner : FULL_ALL            : diagonalization, state selective
  Precond_solver : DEFAULT
  stepsize       :    0.15000000                  energy_gap     :    0.08000000
  eps_taylor     :   0.10000E-15                  max_taylor     :             4
  ----------------------------------- OT ---------------------------------------

  Step     Update method      Time    Convergence         Total energy    Change
  ------------------------------------------------------------------------------
  Decoupling Energy:                                               0.0371231270
  Recoupling Energy:                                              -0.0063748339
     1 OT DIIS     0.15E+00    2.7     0.00057314      -254.8840260121 -2.55E+02
  Decoupling Energy:                                               0.0371264005
  Recoupling Energy:                                              -0.0063748790
     2 OT DIIS     0.15E+00    0.9     0.00022568      -254.8871521815 -3.13E-03
  Decoupling Energy:                                               0.0371270736
  Recoupling Energy:                                              -0.0063748844
     3 OT DIIS     0.15E+00    1.2     0.00008229      -254.8877076122 -5.55E-04
  Decoupling Energy:                                               0.0371223321
  Recoupling Energy:                                              -0.0063748373
     4 OT DIIS     0.15E+00    0.8     0.00002752      -254.8877578455 -5.02E-05
  Decoupling Energy:                                               0.0371233174
  Recoupling Energy:                                              -0.0063748478
     5 OT DIIS     0.15E+00    0.9     0.00001037      -254.8877616475 -3.80E-06
  Decoupling Energy:                                               0.0371231615
  Recoupling Energy:                                              -0.0063748451
     6 OT DIIS     0.15E+00    0.9     0.00000440      -254.8877622331 -5.86E-07
  Decoupling Energy:                                               0.0371230820
  Recoupling Energy:                                              -0.0063748446
     7 OT DIIS     0.15E+00    1.1     0.00000136      -254.8877623235 -9.04E-08
  Decoupling Energy:                                               0.0371230847
  Recoupling Energy:                                              -0.0063748447
     8 OT DIIS     0.15E+00    0.9     0.00000059      -254.8877623343 -1.08E-08

  *** SCF run converged in     8 steps ***


  Electronic density on regular grids:       -180.0000000003       -0.0000000003
  Core density on regular grids:              180.9999999999       -0.0000000001
  Total charge density on r-space grids:        0.9999999996
  Total charge density g-space grids:           0.9999999996

  Overlap energy of the core charge distribution:               0.00005124484435
  Self energy of the core charge distribution:               -615.71576003586028
  Core Hamiltonian energy:                                    191.49125504489621
  Hartree energy:                                             247.90728323749420
  Exchange-correlation energy:                                -61.48094614537931
  Hartree-Fock Exchange energy:                               -18.14140162470304
  QM/MM Electrostatic energy:                                   1.05175594439349

  Total energy:                                              -254.88776233431435

  outer SCF iter =    1 RMS gradient =   0.59E-06 energy =       -254.8877623343
  outer SCF loop converged in   1 iterations or    8 steps

  Decoupling Energy:                                               0.0371230844
  Recoupling Energy:                                              -0.0063748446

 ENERGY| Total FORCE_EVAL ( QMMM ) energy [a.u.]:          -1082.045340608431161

 MD| ***************************************************************************
 MD| Step number                                                               3
 MD| Time [fs]                                                          3.000000
 MD| Conserved quantity [hartree]                            -0.846392350272E+03
 MD| ---------------------------------------------------------------------------
 MD|                                          Instantaneous             Averages
 MD| CPU time per MD step [s]                     27.877934            41.456327
 MD| Energy drift per atom [K]           0.454778191452E+01   0.527248533828E+01
 MD| Potential energy [hartree]         -0.108204534061E+04  -0.106774767548E+04
 MD| Total kinetic energy [hartree]      0.235652990336E+03   0.224190491392E+03
 MD| QM kinetic energy [hartree]         0.117356134428E+00   0.116760441553E+00
 MD| Total temperature [K]                       295.427798           281.057767
 MD| QM temperature [K]                          363.314628           361.470464
 MD| ***************************************************************************

  Translating the system in order to center the QM fragment in the QM box.

 Number of electrons:                                                        180
 Number of occupied orbitals:                                                 90
 Number of molecular orbitals:                                                90

 Number of orbital functions:                                               1067
 Number of independent orbital functions:                                   1067

 Extrapolation method: ASPC


 SCF WAVEFUNCTION OPTIMIZATION

  ----------------------------------- OT ---------------------------------------
  Minimizer      : DIIS                : direct inversion
                                         in the iterative subspace
                                         using   7 DIIS vectors
                                         safer DIIS on
  Preconditioner : FULL_ALL            : diagonalization, state selective
  Precond_solver : DEFAULT
  stepsize       :    0.15000000                  energy_gap     :    0.08000000
  eps_taylor     :   0.10000E-15                  max_taylor     :             4
  ----------------------------------- OT ---------------------------------------

  Step     Update method      Time    Convergence         Total energy    Change
  ------------------------------------------------------------------------------
  Decoupling Energy:                                               0.0371654572
  Recoupling Energy:                                              -0.0063753279
     1 OT DIIS     0.15E+00    2.7     0.00026639      -254.3373040436 -2.54E+02
  Decoupling Energy:                                               0.0371742319
  Recoupling Energy:                                              -0.0063754096
     2 OT DIIS     0.15E+00    0.9     0.00010683      -254.3379933499 -6.89E-04
  Decoupling Energy:                                               0.0371691296
  Recoupling Energy:                                              -0.0063753571
     3 OT DIIS     0.15E+00    0.7     0.00004016      -254.3381211971 -1.28E-04
  Decoupling Energy:                                               0.0371714715
  Recoupling Energy:                                              -0.0063753812
     4 OT DIIS     0.15E+00    1.0     0.00001286      -254.3381311037 -9.91E-06
  Decoupling Energy:                                               0.0371702766
  Recoupling Energy:                                              -0.0063753695
     5 OT DIIS     0.15E+00    0.9     0.00000545      -254.3381319567 -8.53E-07
  Decoupling Energy:                                               0.0371705183
  Recoupling Energy:                                              -0.0063753713
     6 OT DIIS     0.15E+00    1.4     0.00000189      -254.3381320974 -1.41E-07
  Decoupling Energy:                                               0.0371705439
  Recoupling Energy:                                              -0.0063753718
     7 OT DIIS     0.15E+00    0.9     0.00000064      -254.3381321161 -1.88E-08

  *** SCF run converged in     7 steps ***


  Electronic density on regular grids:       -179.9999999999        0.0000000001
  Core density on regular grids:              180.9999999999       -0.0000000001
  Total charge density on r-space grids:        1.0000000000
  Total charge density g-space grids:           1.0000000000

  Overlap energy of the core charge distribution:               0.00002358459239
  Self energy of the core charge distribution:               -615.71576003586028
  Core Hamiltonian energy:                                    191.34732805339252
  Hartree energy:                                             247.97609549462871
  Exchange-correlation energy:                                -61.44937061868508
  Hartree-Fock Exchange energy:                               -18.13041922153733
  QM/MM Electrostatic energy:                                   1.63397062736404

  Total energy:                                              -254.33813211610499

  outer SCF iter =    1 RMS gradient =   0.64E-06 energy =       -254.3381321161
  outer SCF loop converged in   1 iterations or    7 steps

  Decoupling Energy:                                               0.0371704713
  Recoupling Energy:                                              -0.0063753710

 ENERGY| Total FORCE_EVAL ( QMMM ) energy [a.u.]:          -1079.714053818003322

 MD| ***************************************************************************
 MD| Step number                                                               4
 MD| Time [fs]                                                          4.000000
 MD| Conserved quantity [hartree]                            -0.842113596965E+03
 MD| ---------------------------------------------------------------------------
 MD|                                          Instantaneous             Averages
 MD| CPU time per MD step [s]                     27.066903            37.858971
 MD| Energy drift per atom [K]           0.125938614806E+02   0.710282937385E+01
 MD| Potential energy [hartree]         -0.107971405382E+04  -0.107073927006E+04
 MD| Total kinetic energy [hartree]      0.237600456853E+03   0.227542982757E+03
 MD| QM kinetic energy [hartree]         0.148328751567E+00   0.124652519057E+00
 MD| Total temperature [K]                       297.869251           285.260638
 MD| QM temperature [K]                          459.200581           385.902993
 MD| ***************************************************************************

  Translating the system in order to center the QM fragment in the QM box.

 Number of electrons:                                                        180
 Number of occupied orbitals:                                                 90
 Number of molecular orbitals:                                                90

 Number of orbital functions:                                               1067
 Number of independent orbital functions:                                   1067

 Extrapolation method: ASPC


 SCF WAVEFUNCTION OPTIMIZATION

  ----------------------------------- OT ---------------------------------------
  Minimizer      : DIIS                : direct inversion
                                         in the iterative subspace
                                         using   7 DIIS vectors
                                         safer DIIS on
  Preconditioner : FULL_ALL            : diagonalization, state selective
  Precond_solver : DEFAULT
  stepsize       :    0.15000000                  energy_gap     :    0.08000000
  eps_taylor     :   0.10000E-15                  max_taylor     :             4
  ----------------------------------- OT ---------------------------------------

  Step     Update method      Time    Convergence         Total energy    Change
  ------------------------------------------------------------------------------
  Decoupling Energy:                                               0.0372102479
  Recoupling Energy:                                              -0.0063758453
     1 OT DIIS     0.15E+00    2.8     0.00032163      -253.7449295098 -2.54E+02
  Decoupling Energy:                                               0.0372072869
  Recoupling Energy:                                              -0.0063758029
     2 OT DIIS     0.15E+00    1.0     0.00013175      -253.7458490750 -9.20E-04
  Decoupling Energy:                                               0.0372093483
  Recoupling Energy:                                              -0.0063758212
     3 OT DIIS     0.15E+00    1.2     0.00006244      -253.7460081879 -1.59E-04
  Decoupling Energy:                                               0.0372088380
  Recoupling Energy:                                              -0.0063758158
     4 OT DIIS     0.15E+00    0.9     0.00002438      -253.7460393061 -3.11E-05
  Decoupling Energy:                                               0.0372096125
  Recoupling Energy:                                              -0.0063758218
     5 OT DIIS     0.15E+00    1.6     0.00000524      -253.7460418440 -2.54E-06
  Decoupling Energy:                                               0.0372093024
  Recoupling Energy:                                              -0.0063758193
     6 OT DIIS     0.15E+00    0.9     0.00000251      -253.7460419873 -1.43E-07
  Decoupling Energy:                                               0.0372093041
  Recoupling Energy:                                              -0.0063758191
     7 OT DIIS     0.15E+00    0.7     0.00000088      -253.7460420194 -3.21E-08

  *** SCF run converged in     7 steps ***


  Electronic density on regular grids:       -180.0000000000       -0.0000000000
  Core density on regular grids:              180.9999999999       -0.0000000001
  Total charge density on r-space grids:        0.9999999998
  Total charge density g-space grids:           0.9999999998

  Overlap energy of the core charge distribution:               0.00001841783100
  Self energy of the core charge distribution:               -615.71576003586028
  Core Hamiltonian energy:                                    191.22474760836869
  Hartree energy:                                             248.04794695729140
  Exchange-correlation energy:                                -61.41799086153631
  Hartree-Fock Exchange energy:                               -18.11952318611130
  QM/MM Electrostatic energy:                                   2.23451908060991

  Total energy:                                              -253.74604201940684

  outer SCF iter =    1 RMS gradient =   0.88E-06 energy =       -253.7460420194
  outer SCF loop converged in   1 iterations or    7 steps

  Decoupling Energy:                                               0.0372093302
  Recoupling Energy:                                              -0.0063758194

 ENERGY| Total FORCE_EVAL ( QMMM ) energy [a.u.]:          -1094.307011686913484

 MD| ***************************************************************************
 MD| Step number                                                               5
 MD| Time [fs]                                                          5.000000
 MD| Conserved quantity [hartree]                            -0.848389415806E+03
 MD| ---------------------------------------------------------------------------
 MD|                                          Instantaneous             Averages
 MD| CPU time per MD step [s]                     27.917444            35.870666
 MD| Energy drift per atom [K]           0.792354333052E+00   0.584073436569E+01
 MD| Potential energy [hartree]         -0.109430701169E+04  -0.107545281839E+04
 MD| Total kinetic energy [hartree]      0.245917595881E+03   0.231217905382E+03
 MD| QM kinetic energy [hartree]         0.157565689967E+00   0.131235153239E+00
 MD| Total temperature [K]                       308.296083           289.867727
 MD| QM temperature [K]                          487.796571           406.281709
 MD| ***************************************************************************

  Translating the system in order to center the QM fragment in the QM box.

 Number of electrons:                                                        180
 Number of occupied orbitals:                                                 90
 Number of molecular orbitals:                                                90

 Number of orbital functions:                                               1067
 Number of independent orbital functions:                                   1067

 Extrapolation method: ASPC


 SCF WAVEFUNCTION OPTIMIZATION

  ----------------------------------- OT ---------------------------------------
  Minimizer      : DIIS                : direct inversion
                                         in the iterative subspace
                                         using   7 DIIS vectors
                                         safer DIIS on
  Preconditioner : FULL_ALL            : diagonalization, state selective
  Precond_solver : DEFAULT
  stepsize       :    0.15000000                  energy_gap     :    0.08000000
  eps_taylor     :   0.10000E-15                  max_taylor     :             4
  ----------------------------------- OT ---------------------------------------

  Step     Update method      Time    Convergence         Total energy    Change
  ------------------------------------------------------------------------------
  Decoupling Energy:                                               0.0372440600
  Recoupling Energy:                                              -0.0063762180
     1 OT DIIS     0.15E+00    2.7     0.00048937      -253.1925181524 -2.53E+02
  Decoupling Energy:                                               0.0372418558
  Recoupling Energy:                                              -0.0063762256
     2 OT DIIS     0.15E+00    0.8     0.00019210      -253.1946654708 -2.15E-03
  Decoupling Energy:                                               0.0372397247
  Recoupling Energy:                                              -0.0063761956
     3 OT DIIS     0.15E+00    0.8     0.00008077      -253.1950226215 -3.57E-04
  Decoupling Energy:                                               0.0372397935
  Recoupling Energy:                                              -0.0063761979
     4 OT DIIS     0.15E+00    1.2     0.00002273      -253.1950814203 -5.88E-05
  Decoupling Energy:                                               0.0372388145
  Recoupling Energy:                                              -0.0063761872
     5 OT DIIS     0.15E+00    1.0     0.00000840      -253.1950840331 -2.61E-06
  Decoupling Energy:                                               0.0372394727
  Recoupling Energy:                                              -0.0063761927
     6 OT DIIS     0.15E+00    1.2     0.00000286      -253.1950843943 -3.61E-07
  Decoupling Energy:                                               0.0372392224
  Recoupling Energy:                                              -0.0063761904
     7 OT DIIS     0.15E+00    1.0     0.00000086      -253.1950844347 -4.04E-08

  *** SCF run converged in     7 steps ***


  Electronic density on regular grids:       -180.0000000000       -0.0000000000
  Core density on regular grids:              180.9999999999       -0.0000000001
  Total charge density on r-space grids:        0.9999999998
  Total charge density g-space grids:           0.9999999998

  Overlap energy of the core charge distribution:               0.00001843284954
  Self energy of the core charge distribution:               -615.71576003586028
  Core Hamiltonian energy:                                    191.21895372351906
  Hartree energy:                                             248.05853086056763
  Exchange-correlation energy:                                -61.40902890990519
  Hartree-Fock Exchange energy:                               -18.11645403765403
  QM/MM Electrostatic energy:                                   2.76865553178034

  Total energy:                                              -253.19508443470292

  outer SCF iter =    1 RMS gradient =   0.86E-06 energy =       -253.1950844347
  outer SCF loop converged in   1 iterations or    7 steps

  Decoupling Energy:                                               0.0372392193
  Recoupling Energy:                                              -0.0063761903

 ENERGY| Total FORCE_EVAL ( QMMM ) energy [a.u.]:          -1057.339965156010066

 MD| ***************************************************************************
 MD| Step number                                                               6
 MD| Time [fs]                                                          6.000000
 MD| Conserved quantity [hartree]                            -0.842900323785E+03
 MD| ---------------------------------------------------------------------------
 MD|                                          Instantaneous             Averages
 MD| CPU time per MD step [s]                     27.502833            34.476027
 MD| Energy drift per atom [K]           0.111144430301E+02   0.671968580976E+01
 MD| Potential energy [hartree]         -0.105733996516E+04  -0.107243400952E+04
 MD| Total kinetic energy [hartree]      0.214439641371E+03   0.228421528047E+03
 MD| QM kinetic energy [hartree]         0.141133023608E+00   0.132884798300E+00
 MD| Total temperature [K]                       268.833555           286.362032
 MD| QM temperature [K]                          436.923832           411.388729
 MD| ***************************************************************************

 -------------------------------------------------------------------------------
 -                                                                             -
 -                                DBCSR STATISTICS                             -
 -                                                                             -
 -------------------------------------------------------------------------------
 COUNTER                                    TOTAL       BLAS       SMM       ACC
 flops    26 x    26 x    26             13709280     100.0%      0.0%      0.0%
 flops    26 x    26 x    32             33745920     100.0%      0.0%      0.0%
 flops    26 x    32 x    26             33745920     100.0%      0.0%      0.0%
 flops    32 x    26 x    26             33745920     100.0%      0.0%      0.0%
 flops    26 x    26 x   128             39975936     100.0%      0.0%      0.0%
 flops     9 x    26 x    26             43695288     100.0%      0.0%      0.0%
 flops    22 x    26 x    26             65585520     100.0%      0.0%      0.0%
 flops    32 x    32 x    26             83066880     100.0%      0.0%      0.0%
 flops    26 x    32 x    32             83066880     100.0%      0.0%      0.0%
 flops    32 x    26 x    32             83066880     100.0%      0.0%      0.0%
 flops    26 x    26 x   137             85573488     100.0%      0.0%      0.0%
 flops     9 x    26 x   128             90574848     100.0%      0.0%      0.0%
 flops    26 x    32 x   128             98402304     100.0%      0.0%      0.0%
 flops    32 x    26 x   128             98402304     100.0%      0.0%      0.0%
 flops     9 x    32 x    26            100638720     100.0%      0.0%      0.0%
 flops     9 x    26 x    32            100638720     100.0%      0.0%      0.0%
 flops    22 x    26 x   128            129153024     100.0%      0.0%      0.0%
 flops    22 x    26 x    32            143503360     100.0%      0.0%      0.0%
 flops    22 x    32 x    26            143503360     100.0%      0.0%      0.0%
 flops    31 x    26 x    26            164295040     100.0%      0.0%      0.0%
 flops     9 x     9 x    26            165405240     100.0%      0.0%      0.0%
 flops     9 x    26 x   137            193886784     100.0%      0.0%      0.0%
 flops    32 x    32 x    32            204472320     100.0%      0.0%      0.0%
 flops    26 x    26 x   133            207687480     100.0%      0.0%      0.0%
 flops    26 x    32 x   137            210642432     100.0%      0.0%      0.0%
 flops    32 x    26 x   137            210642432     100.0%      0.0%      0.0%
 flops     9 x    32 x   128            222953472     100.0%      0.0%      0.0%
 flops    32 x    32 x   128            242221056     100.0%      0.0%      0.0%
 flops     9 x    32 x    32            256241664     100.0%      0.0%      0.0%
 flops    22 x    26 x   137            276468192     100.0%      0.0%      0.0%
 flops    22 x    32 x   128            317915136     100.0%      0.0%      0.0%
 flops    31 x    26 x   128            363976704     100.0%      0.0%      0.0%
 flops    22 x    32 x    32            375316480     100.0%      0.0%      0.0%
 flops    31 x    32 x    26            404418560     100.0%      0.0%      0.0%
 flops    31 x    26 x    32            404418560     100.0%      0.0%      0.0%
 flops     9 x     9 x    32            407151360     100.0%      0.0%      0.0%
 flops    22 x     9 x    26            415855440     100.0%      0.0%      0.0%
 flops     9 x    22 x    26            416576160     100.0%      0.0%      0.0%
 flops     9 x    26 x   133            470564640     100.0%      0.0%      0.0%
 flops     9 x    32 x   137            477259776     100.0%      0.0%      0.0%
 flops    26 x    32 x   133            511230720     100.0%      0.0%      0.0%
 flops    32 x    26 x   133            511230720     100.0%      0.0%      0.0%
 flops    32 x    32 x   137            518504448     100.0%      0.0%      0.0%
 flops    22 x    26 x   133            670990320     100.0%      0.0%      0.0%
 flops    22 x    32 x   137            680537088     100.0%      0.0%      0.0%
 flops    31 x    26 x   137            779137632     100.0%      0.0%      0.0%
 flops     9 x    26 x     9            802701900     100.0%      0.0%      0.0%
 flops    31 x    32 x   128            895942656     100.0%      0.0%      0.0%
 flops    31 x    32 x    32            995491840     100.0%      0.0%      0.0%
 flops    22 x     9 x    32           1023644160     100.0%      0.0%      0.0%
 flops     9 x    22 x    32           1025418240     100.0%      0.0%      0.0%
 flops    22 x    22 x    26           1109908800     100.0%      0.0%      0.0%
 flops     9 x    32 x   133           1158312960     100.0%      0.0%      0.0%
 flops    32 x    32 x   133           1258414080     100.0%      0.0%      0.0%
 flops    22 x    32 x   133           1651668480     100.0%      0.0%      0.0%
 flops    31 x    26 x   133           1890972720     100.0%      0.0%      0.0%
 flops    31 x    32 x   137           1917877248     100.0%      0.0%      0.0%
 flops     9 x    32 x     9           1975881600     100.0%      0.0%      0.0%
 flops    22 x    26 x     9           2081079000     100.0%      0.0%      0.0%
 flops     9 x    26 x    22           2081079000     100.0%      0.0%      0.0%
 flops    22 x    22 x    32           2732083200     100.0%      0.0%      0.0%
 flops    31 x    32 x   133           4654702080     100.0%      0.0%      0.0%
 flops    22 x    32 x     9           5122656000     100.0%      0.0%      0.0%
 flops     9 x    32 x    22           5122656000     100.0%      0.0%      0.0%
 flops    22 x    26 x    22           5395390000     100.0%      0.0%      0.0%
 flops    22 x    32 x    22          13280960000     100.0%      0.0%      0.0%
 flops inhomo. stacks                 13125490560     100.0%      0.0%      0.0%
 flops total                        80.886125E+09     100.0%      0.0%      0.0%
 flops max/rank                      3.886805E+09     100.0%      0.0%      0.0%
 matmuls inhomo. stacks                     55440     100.0%      0.0%      0.0%
 matmuls total                            3187242     100.0%      0.0%      0.0%
 number of processed stacks                991587     100.0%      0.0%      0.0%
 average stack size                                     3.2       0.0       0.0
 marketing flops                    85.671830E+09
 -------------------------------------------------------------------------------
 # multiplications                           1286
 max memory usage/rank               2.849948E+09
 # max total images/rank                        1
 # max 3D layers                                1
 # MPI messages exchanged                 1152256
 MPI messages size (bytes):
  total size                        26.071108E+09
  min size                           0.000000E+00
  max size                         150.152000E+03
  average size                      22.626143E+03
 MPI breakdown and total messages size (bytes):
             size <=      128              750561                        0
       128 < size <=     8192               66927                481883808
      8192 < size <=    32768               83300               2394641760
     32768 < size <=   131072              118727               4280966144
    131072 < size <=  4194304              132741              18914201880
   4194304 < size <= 16777216                   0                        0
  16777216 < size                               0                        0
 -------------------------------------------------------------------------------
 -                                                                             -
 -                      DBCSR MESSAGE PASSING PERFORMANCE                      -
 -                                                                             -
 -------------------------------------------------------------------------------
 ROUTINE             CALLS      AVE VOLUME [Bytes]
 MP_Bcast               67                     12.
 MP_Allreduce         6882                      8.
 MP_Alltoall          5344                  12862.
 MP_ISend            41124                  13432.
 MP_IRecv            41124                  12864.
 -------------------------------------------------------------------------------

 -------------------------------------------------------------------------------
 -                                                                             -
 -                                GRID STATISTICS                              -
 -                                                                             -
 -------------------------------------------------------------------------------
 LP    KERNEL             BACKEND                              COUNT     PERCENT
 2     collocate ortho    REF                                1126269      19.05%
 2     integrate ortho    REF                                1106014      18.71%
 1     collocate ortho    REF                                 943978      15.97%
 1     integrate ortho    REF                                 870340      14.72%
 3     integrate ortho    REF                                 570062       9.64%
 3     collocate ortho    REF                                 500530       8.47%
 0     collocate ortho    REF                                 281245       4.76%
 0     integrate ortho    REF                                 249988       4.23%
 4     integrate ortho    REF                                 121240       2.05%
 4     collocate ortho    REF                                  73823       1.25%
 0     collocate general  REF                                  30464       0.52%
 1     integrate general  REF                                  30464       0.52%
 5     integrate ortho    REF                                   8201       0.14%
 -------------------------------------------------------------------------------

 MEMORY| Estimated peak process memory [MiB]                                2718

 -------------------------------------------------------------------------------
 -                                                                             -
 -                         MESSAGE PASSING PERFORMANCE                         -
 -                                                                             -
 -------------------------------------------------------------------------------

 ROUTINE             CALLS      AVE VOLUME [Bytes]
 MP_Group                8
 MP_Bcast             6942               10565479.
 MP_Allreduce         2477                1659290.
 MP_Sync               437
 MP_Alltoall          1344               17978175.
 MP_ISendRecv        26019                  64774.
 MP_Wait             33670
 MP_comm_split          21
 MP_ISend             6475                 556371.
 MP_IRecv             6468                 556115.
 MP_Recv                49                 102432.
 -------------------------------------------------------------------------------


 -------------------------------------------------------------------------------
 -                                                                             -
 -                           R E F E R E N C E S                               -
 -                                                                             -
 -------------------------------------------------------------------------------
 
 CP2K version 8.2, the CP2K developers group (2021).
 CP2K is freely available from https://www.cp2k.org/ .

 Kuehne,Thomas D.; Iannuzzi,Marcella; Del Ben,Mauro;
 Rybkin,Vladimir V.; Seewald,Patrick; Stein,Frederick; Laino,Teodoro;
 Khaliullin,Rustam Z.; Schuett,Ole; Schiffmann,Florian; Golze,Dorothea;
 Wilhelm,Jan; Chulkov,Sergey; Bani-Hashemian,Mohammad Hossein;
 Weber,Valery; Borstnik,Urban; Taillefumier,Mathieu;
 Jakobovits,Alice Shoshana; Lazzaro,Alfio; Pabst,Hans; Mueller,Tiziano;
 Schade,Robert; Guidon,Manuel; Andermatt,Samuel; Holmberg,Nico;
 Schenter,Gregory K.; Hehn,Anna; Bussy,Augustin; Belleflamme,Fabian;
 Tabacchi,Gloria; Gloess,Andreas; Lass,Michael; Bethune,Iain;
 Mundy,Christopher J.; Plessl,Christian; Watkins,Matt;
 VandeVondele,Joost; Krack,Matthias; Hutter,Juerg. 
 The Journal of Chemical Physics, 152 (19), (2020). 
 CP2K: An electronic structure and molecular dynamics software package -
 Quickstep: Efficient and accurate electronic structure calculations.
 https://doi.org/10.1063/5.0007045

 Schuett, Ole; Messmer, Peter; Hutter, Juerg; VandeVondele, Joost. 
 Electronic Structure Calculations on Graphics Processing Units, John
 Wiley & Sons, Ltd, 173-190 (2016). 
 GPU-Accelerated Sparse Matrix-Matrix Multiplication for
 Linear Scaling Density Functional Theory.
 https://doi.org/10.1002/9781118670712.ch8

 Borstnik, U; VandeVondele, J; Weber, V; Hutter, J. 
 PARALLEL COMPUTING, 40 (5-6), 47-58 (2014). 
 Sparse matrix multiplication: The distributed block-compressed sparse
 row library.
 https://doi.org/10.1016/j.parco.2014.03.012

 Hutter, J; Iannuzzi, M; Schiffmann, F; VandeVondele, J. 
 WIREs Comput Mol Sci., 4 (1), 15-25 (2014). 
 CP2K: atomistic simulations of condensed matter systems.
 https://doi.org/10.1002/wcms.1159

 Marek, A; Blum, V; Johanni, R; Havu, V; Lang, B; Auckenthaler, T;
 Heinecke, A; Bungartz, H; Lederer, H. 
 Journal of Physics: Condensed Matter, 26 (21), (2014). 
 The ELPA library: scalable parallel eigenvalue solutions for
 electronic structure
 theory and computational science.
 https://doi.org/10.1088/0953-8984/26/21/213201

 Guidon, M; Hutter, J; VandeVondele, J. 
 JOURNAL OF CHEMICAL THEORY AND COMPUTATION, 5 (11), 3010-3021 (2009). 
 Robust Periodic Hartree-Fock Exchange for Large-Scale Simulations Using
 Gaussian Basis Sets.
 https://doi.org/10.1021/ct900494g

 Guidon, M; Schiffmann, F; Hutter, J; VandeVondele, J. 
 JOURNAL OF CHEMICAL PHYSICS, 128 (21), 214104 (2008). 
 Ab initio molecular dynamics using hybrid density functionals.
 https://doi.org/10.1063/1.2931945

 Kuhne, TD; Krack, M; Mohamed, FR; Parrinello, M. 
 PHYSICAL REVIEW LETTERS, 98 (6), 066401 (2007). 
 Efficient and accurate Car-Parrinello-like approach to
 Born-Oppenheimer molecular dynamics.
 https://doi.org/10.1103/PhysRevLett.98.066401

 Laino, T; Mohamed, F; Laio, A; Parrinello, M. 
 JOURNAL OF CHEMICAL THEORY AND COMPUTATION, 2 (5), 1370-1378 (2006). 
 An efficient linear-scaling electrostatic coupling for treating
 periodic boundary conditions in QM/MM simulations.
 https://doi.org/10.1021/ct6001169

 Laino, T; Mohamed, F; Laio, A; Parrinello, M. 
 JOURNAL OF CHEMICAL THEORY AND COMPUTATION, 1 (6), 1176-1184 (2005). 
 An efficient real space multigrid QM/MM electrostatic coupling.
 https://doi.org/10.1021/ct050123f

 Krack, M. 
 THEORETICAL CHEMISTRY ACCOUNTS, 114 (1-3), 145-152 (2005). 
 Pseudopotentials for H to Kr optimized for gradient-corrected
 exchange-correlation functionals.
 https://doi.org/10.1007/s00214-005-0655-y

 VandeVondele, J; Krack, M; Mohamed, F; Parrinello, M; Chassaing, T;
 Hutter, J. COMPUTER PHYSICS COMMUNICATIONS, 167 (2), 103-128 (2005). 
 QUICKSTEP: Fast and accurate density functional calculations using a
 mixed Gaussian and plane waves approach.
 https://doi.org/10.1016/j.cpc.2004.12.014

 Frigo, M; Johnson, SG. 
 PROCEEDINGS OF THE IEEE, 93 (2), 216-231 (2005). 
 The design and implementation of FFTW3.
 https://doi.org/10.1109/JPROC.2004.840301

 Kolafa, J. 
 JOURNAL OF COMPUTATIONAL CHEMISTRY, 25 (3), 335-342 (2004). 
 Time-reversible always stable predictor-corrector method for molecular dynamics of polarizable molecules.
 https://doi.org/10.1002/jcc.10385

 VandeVondele, J; Hutter, J. 
 JOURNAL OF CHEMICAL PHYSICS, 118 (10), 4365-4369 (2003). 
 An efficient orbital transformation method for electronic structure
 calculations.
 https://doi.org/10.1063/1.1543154

 Hartwigsen, C; Goedecker, S; Hutter, J. 
 PHYSICAL REVIEW B, 58 (7), 3641-3662 (1998). 
 Relativistic separable dual-space Gaussian pseudopotentials from H to Rn.
 https://doi.org/10.1103/PhysRevB.58.3641

 Lippert, G; Hutter, J; Parrinello, M. 
 MOLECULAR PHYSICS, 92 (3), 477-487 (1997). 
 A hybrid Gaussian and plane wave density functional scheme.
 https://doi.org/10.1080/002689797170220

 Perdew, JP; Burke, K; Ernzerhof, M. 
 PHYSICAL REVIEW LETTERS, 77 (18), 3865-3868 (1996). 
 Generalized gradient approximation made simple.
 https://doi.org/10.1103/PhysRevLett.77.3865

 Goedecker, S; Teter, M; Hutter, J. 
 PHYSICAL REVIEW B, 54 (3), 1703-1710 (1996). 
 Separable dual-space Gaussian pseudopotentials.
 https://doi.org/10.1103/PhysRevB.54.1703

 ESSMANN, U; PERERA, L; BERKOWITZ, ML; DARDEN, T; LEE, H; PEDERSEN, LG. 
 JOURNAL OF CHEMICAL PHYSICS, 103 (19), 8577-8593 (1995). 
 A SMOOTH PARTICLE MESH EWALD METHOD.
 https://doi.org/10.1063/1.470117

 BLOCHL, PE. 
 JOURNAL OF CHEMICAL PHYSICS, 103 (17), 7422-7428 (1995). 
 ELECTROSTATIC DECOUPLING OF PERIODIC IMAGES OF PLANE-WAVE-EXPANDED
 DENSITIES AND DERIVED ATOMIC POINT CHARGES.
 https://doi.org/10.1063/1.470314


 -------------------------------------------------------------------------------
 -                                                                             -
 -                                T I M I N G                                  -
 -                                                                             -
 -------------------------------------------------------------------------------
 SUBROUTINE                       CALLS  ASD         SELF TIME        TOTAL TIME
                                MAXIMUM       AVERAGE  MAXIMUM  AVERAGE  MAXIMUM
 CP2K                                 1  1.0    0.163    0.179  253.464  253.465
 qs_mol_dyn_low                       1  2.0    0.006    0.007  207.710  209.398
 velocity_verlet                      6  3.0    0.015    0.019  170.730  170.775
 qs_forces                            7  3.9    0.001    0.002  120.155  120.156
 rebuild_ks_matrix                   63  8.5    0.000    0.001   97.258   97.293
 qs_ks_build_kohn_sham_matrix        63  9.5    0.010    0.012   97.258   97.293
 qs_energies                          7  4.9    0.000    0.001   80.238   80.272
 scf_env_do_scf                       7  5.9    0.000    0.001   77.551   77.552
 hfx_ks_matrix                       63 10.5    0.002    0.003   68.744   68.802
 qs_ks_update_qs_env                 63  7.8    0.001    0.001   57.449   57.479
 scf_env_do_scf_inner_loop           56  6.8    0.002    0.005   52.359   52.371
 qmmm_env_create                      1  2.0    7.493    7.611   43.847   43.848
 qmmm_forces                          7  3.9    0.019    0.020   40.420   40.420
 qmmm_forces_with_gaussian            7  4.9    0.725    0.742   39.586   39.972
 qs_ks_update_qs_env_forces           7  4.9    0.000    0.000   39.820   39.824
 qmmm_el_coupling                     7  3.9    0.000    0.000   39.402   39.630
 qmmm_elec_with_gaussian              7  4.9    0.743    0.761   39.398   39.626
 derivatives_four_center              7  8.9    0.013    0.267   34.825   34.826
 derivatives_four_center_main         7  9.9    0.106    0.204   34.282   34.284
 derivatives_four_center_bin        793 10.8   33.758   34.142   33.758   34.142
 integrate_four_center               63 11.5    3.653    4.725   33.908   33.960
 fist_init                            1  3.0    0.000    0.000   33.258   33.258
 init_scf_loop                        7  6.9    0.000    0.000   25.166   25.167
 pw_transfer                       1337 12.0    0.091    0.103   23.529   24.270
 fft_wrap_pw1pw2                   1113 13.1    0.012    0.016   23.307   24.049
 integrate_four_center_main          63 12.5    0.081    0.164   23.565   23.955
 integrate_four_center_bin         4369 13.5   23.484   23.865   23.484   23.865
 fft_wrap_pw1pw2_200                707 14.4    0.878    0.978   22.109   22.974
 fft3d_ps                          1113 15.1    2.800    3.372   21.401   22.157
 pw_integral_ab                    2967  7.5   20.484   21.009   20.782   21.372
 qmmm_elec_with_gaussian_low          7  5.9    0.000    0.000   18.078   19.015
 pw_restrict_s3                      21  5.9    2.404    2.471   18.395   18.600
 mp_alltoall_z22v                  1113 17.1   17.510   18.400   17.510   18.400
 rdparm_amber_8                       2  6.5   13.070   14.247   18.237   18.346
 force_field_control                  1  4.0    0.000    0.000   17.213   17.374
 topology_control                     1  4.0    0.000    0.000   15.853   16.176
 qmmm_force_with_gaussian_low         7  5.9    0.000    0.000   15.771   16.018
 qs_vxc_create                       63 10.5    0.001    0.001   15.791   15.795
 xc_vxc_pw_create                    63 11.5    0.228    0.240   15.790   15.794
 qs_rho_update_rho                   63  7.9    0.001    0.001   14.701   14.705
 calculate_rho_elec                  63  8.9    0.120    0.126   14.700   14.704
 qmmm_elec_with_gaussian:spline       7  5.9    0.000    0.000   13.887   14.112
 pw_prolongate_s3                    21  6.9    1.811    1.892   13.887   14.112
 mp_sum_dm3                          38  5.7   12.765   13.326   12.765   13.326
 qmmm_forces_gaussian_low_R           7  6.9    0.000    0.000   12.970   13.223
 qmmm_forces_with_gaussian_LG         7  7.9   12.970   13.223   12.970   13.223
 qmmm_elec_gaussian_low_R             7  6.9    0.000    0.000   11.587   12.459
 qmmm_elec_with_gaussian_LG           7  7.9   11.587   12.459   11.587   12.459
 rs_pw_transfer                     546 11.8    0.011    0.119   10.838   11.358
 density_rs2pw                       63  9.9    0.003    0.007   10.436   10.906
 yz_to_x                            518 15.7    0.486    0.877    9.622   10.296
 connectivity_control                 2  4.0    0.000    0.001    9.670    9.673
 read_connectivity_amber              1  6.0    0.000    0.000    9.557    9.559
 x_to_yz                            595 16.5    0.588    1.252    8.963    9.187
 read_force_field_amber               1  5.0    0.012    0.012    8.692    8.802
 sum_up_and_integrate                63 10.5    0.045    0.047    8.597    8.616
 force_field_pack                     1  5.0    0.008    0.009    8.418    8.591
 integrate_v_rspace                  63 11.5    0.003    0.008    8.552    8.573
 xc_rho_set_and_dset_create          63 12.5    0.077    0.080    7.078    7.395
 potential_pw2rs                     63 12.5    0.009    0.119    7.361    7.392
 mp_waitany                        6468 13.4    6.204    7.353    6.204    7.353
 qmmm_elec_gaussian_low_G             7  6.9    6.491    6.712    6.491    6.712
 grid_collocate_task_list            63  9.9    3.550    6.347    3.550    6.347
 parser_read_line                925134  7.6    0.585    1.927    5.492    6.133
 parser_read_line_low               933  8.5    0.057    0.864    4.908    5.985
 broadcast_input_information        933  9.5    0.005    0.014    4.851    5.942
 mp_waitall_1                    130075 16.3    4.040    5.731    4.040    5.731
 mp_bcast_i                        3758 10.5    4.149    5.251    4.149    5.251
 force_field_pack_splines             2  6.0    0.011    0.012    4.953    5.096
 -------------------------------------------------------------------------------

 The number of warnings for this run is : 0
 
 -------------------------------------------------------------------------------
  **** **** ******  **  PROGRAM ENDED AT                 2021-09-01 13:48:24.079
 ***** ** ***  *** **   PROGRAM RAN ON                                 nid001691
 **    ****   ******    PROGRAM RAN BY                                     hjbio
 ***** **    ** ** **   PROGRAM PROCESS ID                                136774
  **** **  *******  **  PROGRAM STOPPED IN /lus/cls01095/work/d118/d118/hjbio/qm
                                           mm-benchmarking/archer2/CPU/cp2kMD/CB
                                           D_PHY-PBE0/6STEPS/4NODES/128CPN/8THRE
                                           ADS
