 DBCSR| CPU Multiplication driver                                           BLAS
 DBCSR| Multrec recursion limit                                              512
 DBCSR| Multiplication stack size                                           1000
 DBCSR| Maximum elements for images                                    UNLIMITED
 DBCSR| Multiplicative factor virtual images                                   1
 DBCSR| Use multiplication densification                                       T
 DBCSR| Multiplication size stacks                                             3
 DBCSR| Use memory pool for CPU allocation                                     F
 DBCSR| Number of 3D layers                                               SINGLE
 DBCSR| Use MPI memory allocation                                              F
 DBCSR| Use RMA algorithm                                                      F
 DBCSR| Use Communication thread                                               T
 DBCSR| Communication thread load                                             87
 DBCSR| MPI: My node id                                                        0
 DBCSR| MPI: Number of nodes                                                 128
 DBCSR| OMP: Current number of threads                                         1
 DBCSR| OMP: Max number of threads                                             1
 DBCSR| Split modifier for TAS multiplication algorithm                  1.0E+00


  **** **** ******  **  PROGRAM STARTED AT               2021-08-30 17:51:46.280
 ***** ** ***  *** **   PROGRAM STARTED ON                             nid001961
 **    ****   ******    PROGRAM STARTED BY                                 hjbio
 ***** **    ** ** **   PROGRAM PROCESS ID                                110903
  **** **  *******  **  PROGRAM STARTED IN /lus/cls01095/work/d118/d118/hjbio/qm
                                           mm-benchmarking/archer2/CPU/cp2kMD/CB
                                           D_PHY/1STEPS/4NODES/32CPN/1THREADS

 CP2K| version string:                                          CP2K version 8.2
 CP2K| source code revision number:                                  git:310b7ab
 CP2K| cp2kflags: omp libint fftw3 libxc elpa parallel mpi3 scalapack plumed2   
 CP2K| is freely available from                            https://www.cp2k.org/
 CP2K| Program compiled at                          Thu 10 Jun 17:43:51 BST 2021
 CP2K| Program compiled on                                                 uan01
 CP2K| Program compiled for                                              ARCHER2
 CP2K| Data directory path              /work/d118/d118/hjbio/CP2K/cp2k-8.2/data
 CP2K| Input file name                                          CBD_PHY-cp2k.inp

 GLOBAL| Force Environment number                                              1
 GLOBAL| Basis set file name                                        BASIS_MOLOPT
 GLOBAL| Potential file name                                           POTENTIAL
 GLOBAL| MM Potential file name                                     MM_POTENTIAL
 GLOBAL| Coordinate file name                                        CBD_PHY.pdb
 GLOBAL| Method name                                                        CP2K
 GLOBAL| Project name                                                CBD_PHY-PBE
 GLOBAL| Run type                                                             MD
 GLOBAL| FFT library                                                       FFTW3
 GLOBAL| Diagonalization library                                            ELPA
 GLOBAL| Minimum number of eigenvectors for ELPA usage                        16
 GLOBAL| Orthonormality check for eigenvectors                          DISABLED
 GLOBAL| Matrix multiplication library                                    SCALAP
 GLOBAL| All-to-all communication in single precision                          F
 GLOBAL| FFTs using library dependent lengths                                  F
 GLOBAL| Grid backend                                                       AUTO
 GLOBAL| Global print level                                                  LOW
 GLOBAL| MPI I/O enabled                                                       T
 GLOBAL| Total number of message passing processes                           128
 GLOBAL| Number of threads for this process                                    1
 GLOBAL| This output is from process                                           0
 GLOBAL| CPU model name                          AMD EPYC 7742 64-Core Processor
 GLOBAL| CPUID                                                              1002

 MEMORY| system memory details [Kb]
 MEMORY|                        rank 0           min           max       average
 MEMORY| MemTotal            263568576     263568576     263568576     263568576
 MEMORY| MemFree             236272620     236272620     236272868     236272842
 MEMORY| Buffers                312852        312852        312852        312852
 MEMORY| Cached                4787956       4787956       4787992       4787988
 MEMORY| Slab                  2000268       2000268       2000880       2000826
 MEMORY| SReclaimable           253912        253912        254200        254139
 MEMORY| MemLikelyFree       241627340     241627340     241627872     241627822



                      ************* ******** ***********   
                     ************* **********************  
                     ****     **** ****      ***********   
                     ******** ****  *******     ****       
                     *******  ****   *******   ****        
                     ****     ****       ****  ****        
                     ****     **** **********  ****        
                      ****     **** ********    ****       
                     FRONTIERS IN SIMULATION TECHNOLOGY    
                                                           
                        C.J. Mundy, S. Balasubramanian,    
                     Ken Bagchi, J. Hutter, Ari Seitsonen  
                      IFW Kuo, T. Laino, J. VandeVondele   
                                 Version 1.0               

                                                           


 EWALD| Summation is done by:                                               SPME
 EWALD| Alpha parameter [       ANGSTROM^-1]                              0.4000
 EWALD| Real Space Cutoff [          ANGSTROM]                            8.4348
 EWALD| G-space max. Miller index                         80        80        80
 EWALD| Spline interpolation order                                             6

 FORCEFIELD| WARNING: A non Critical ForceField parameter is missing! CP2K GOES!
 FORCEFIELD| Non critical parameters are:Urey-Bradley,Torsions,Impropers, Opbends and 1-4
 FORCEFIELD| All missing parameters will not contribute to the potential energy!
 FORCEFIELD| Activate the print key FF_INFO to have a list of missing parameters

 CHARGE_INFO| Total Charge of the Classical System:                    -0.825808

 SPLINE_INFO| Generating 101926 splines for NONBONDED14 interactions 
              Due to 451 different atomic kinds
  ...10192  ...20384  ...30576  ...40768  ...50960  ...61152  ...71344  ...81536  ...91728  ...101920
 SPLINE_INFO| Number of unique splines computed:            301
 SPLINE_INFO| Done

 SPLINE_INFO| Generating 101926 splines for NONBONDED interactions 
              Due to 451 different atomic kinds
  ...10192  ...20384  ...30576  ...40768  ...50960  ...61152  ...71344  ...81536  ...91728  ...101920
 SPLINE_INFO| Number of unique splines computed:            301
 SPLINE_INFO| Done

 *******************************************************************************
 *******************************************************************************
 **                                                                           **
 **     #####                         ##              ##                      **
 **    ##   ##            ##          ##              ##                      **
 **   ##     ##                       ##            ######                    **
 **   ##     ##  ##   ##  ##   #####  ##  ##   ####   ##    #####    #####    **
 **   ##     ##  ##   ##  ##  ##      ## ##   ##      ##   ##   ##  ##   ##   **
 **   ##  ## ##  ##   ##  ##  ##      ####     ###    ##   ######   ######    **
 **    ##  ###   ##   ##  ##  ##      ## ##      ##   ##   ##       ##        **
 **     #######   #####   ##   #####  ##  ##  ####    ##    #####   ##        **
 **           ##                                                    ##        **
 **                                                                           **
 **                                                ... make the atoms dance   **
 **                                                                           **
 **            Copyright (C) by CP2K developers group (2000-2021)             **
 **                      J. Chem. Phys. 152, 194103 (2020)                    **
 **                                                                           **
 *******************************************************************************


 TOTAL NUMBERS AND MAXIMUM NUMBERS

  Total number of            - Atomic kinds:                                   5
                             - Atoms:                                         68
                             - Shell sets:                                    68
                             - Shells:                                       274
                             - Primitive Cartesian functions:                476
                             - Cartesian basis functions:                    655
                             - Spherical basis functions:                    620

  Maximum angular momentum of- Orbital basis functions:                        2
                             - Local part of the GTH pseudopotential:          2
                             - Non-local part of the GTH pseudopotential:      0


 SCF PARAMETERS         Density guess:                                   RESTART
                        --------------------------------------------------------
                        max_scf:                                             300
                        max_scf_history:                                       0
                        max_diis:                                              4
                        --------------------------------------------------------
                        eps_scf:                                        1.00E-06
                        eps_scf_history:                                0.00E+00
                        eps_diis:                                       1.00E-01
                        eps_eigval:                                     1.00E-05
                        --------------------------------------------------------
                        level_shift [a.u.]:                                 0.00
                        --------------------------------------------------------
                        No outer SCF

 *******************************************************************************
 *******************************************************************************
 **                                                                           **
 **             #######  ##     ## ##     ## ##     ##                        **
 **            ##     ## ###   ### ###   ### ###   ###                        **
 **            ##     ## #### #### #### #### #### ####                        **
 **            ##     ## ## ### ## ## ### ## ## ### ##                        **
 **            ##  ## ## ##     ## ##     ## ##     ##                        **
 **            ##    ##  ##     ## ##     ## ##     ##  T.Laino and F.Mohamed **
 **             ##### ## ##     ## ##     ## ##     ##  2005 - 2015           **
 **                                                                           **
 **                                                     Calculation Started.. **
 *******************************************************************************
 *******************************************************************************

 MD_PAR| Molecular dynamics protocol (MD input parameters)
 MD_PAR| Ensemble type                                                       NVE
 MD_PAR| Number of time steps                                                  1
 MD_PAR| Time step [fs]                                                 1.000000
 MD_PAR| Temperature [K]                                              300.000000
 MD_PAR| Temperature tolerance [K]                                      0.000000
 MD_PAR| Print MD information every                                    1 step(s)
 MD_PAR| File type   Print frequency [steps]                          File names
 MD_PAR| Coordinates          1                            CBD_PHY-PBE-pos-1.xyz
 MD_PAR| Velocities           1                            CBD_PHY-PBE-vel-1.xyz
 MD_PAR| Energies             1                               CBD_PHY-PBE-1.ener
 MD_PAR| Dump                20                            CBD_PHY-PBE-1.restart

 ROT| Rotational analysis information
 ROT| Principal axes and moments of inertia [a.u.]
 ROT|                           1                   2                   3
 ROT| Eigenvalues      1.56283164001E+13   1.56407408488E+13   1.56663418804E+13
 ROT|      x              0.901637047331     -0.018153263569      0.432112362589
 ROT|      y              0.323714777231      0.690893927917     -0.646431994388
 ROT|      z             -0.286808957117      0.722728191915      0.628812040859
 ROT| Number of rotovibrational vectors                                        6

 DOF| Calculation of degrees of freedom
 DOF| Number of atoms                                                     167923
 DOF| Number of intramolecular constraints                                     0
 DOF| Number of intermolecular constraints                                     0
 DOF| Invariants (translations + rotations)                                    3
 DOF| Degrees of freedom                                                  503766

 DOF| Restraints information
 DOF| Number of intramolecular restraints                                      0
 DOF| Number of intermolecular restraints                                      0

 MD_VEL| Velocities initialization
 MD_VEL| Initial temperature [K]                                      300.000000
 MD_VEL| COM velocity            -0.0000000000     0.0000000000     0.0000000000

  Translating the system in order to center the QM fragment in the QM box.

 Number of electrons:                                                        180
 Number of occupied orbitals:                                                 90
 Number of molecular orbitals:                                                90

 Number of orbital functions:                                                620
 Number of independent orbital functions:                                    620

 Extrapolation method: initial_guess


 SCF WAVEFUNCTION OPTIMIZATION

  ----------------------------------- OT ---------------------------------------
  Minimizer      : DIIS                : direct inversion
                                         in the iterative subspace
                                         using   7 DIIS vectors
                                         safer DIIS on
  Preconditioner : FULL_ALL            : diagonalization, state selective
  Precond_solver : DEFAULT
  stepsize       :    0.15000000                  energy_gap     :    0.08000000
  eps_taylor     :   0.10000E-15                  max_taylor     :             4
  ----------------------------------- OT ---------------------------------------

  Step     Update method      Time    Convergence         Total energy    Change
  ------------------------------------------------------------------------------
  Decoupling Energy:                                               0.0370860478
  Recoupling Energy:                                              -0.0063743250
     1 OT DIIS     0.15E+00    1.2     0.00001021      -256.0303947307 -2.56E+02
  Decoupling Energy:                                               0.0370861868
  Recoupling Energy:                                              -0.0063743257
     2 OT DIIS     0.15E+00    1.4     0.00000510      -256.0303952932 -5.63E-07
  Decoupling Energy:                                               0.0370855967
  Recoupling Energy:                                              -0.0063743192
     3 OT DIIS     0.15E+00    1.4     0.00000563      -256.0303953566 -6.34E-08
  Decoupling Energy:                                               0.0370861480
  Recoupling Energy:                                              -0.0063743254
     4 OT DIIS     0.15E+00    1.4     0.00000160      -256.0303954144 -5.78E-08
  Decoupling Energy:                                               0.0370859312
  Recoupling Energy:                                              -0.0063743228
     5 OT DIIS     0.15E+00    1.4     0.00000021      -256.0303954186 -4.15E-09

  *** SCF run converged in     5 steps ***


  Electronic density on regular grids:       -179.9999999994        0.0000000006
  Core density on regular grids:              180.9999999999       -0.0000000001
  Total charge density on r-space grids:        1.0000000005
  Total charge density g-space grids:           1.0000000005

  Overlap energy of the core charge distribution:               0.00001951532734
  Self energy of the core charge distribution:               -615.71576003586028
  Core Hamiltonian energy:                                    191.69815043189828
  Hartree energy:                                             247.57404800384944
  Exchange-correlation energy:                                -79.63275546513557
  QM/MM Electrostatic energy:                                   0.04590213136049

  Total energy:                                              -256.03039541856026
  Decoupling Energy:                                               0.0370859745
  Recoupling Energy:                                              -0.0063743233

 ENERGY| Total FORCE_EVAL ( QMMM ) energy [a.u.]:          -1088.195362349199058

 MD_INI| MD initialization
 MD_INI| Potential energy [hartree]                          -0.108819536235E+04
 MD_INI| Total kinetic energy [hartree]                       0.239300084734E+03
 MD_INI| QM kinetic energy [hartree]                          0.106639360339E+00
 MD_INI| Total temperature [K]                                        300.000000
 MD_INI| QM temperature [K]                                           330.137318
 MD_INI| Cell volume [bohr^3]                                 1.137316355424E+07
 MD_INI| Cell volume [ang^3]                                  1.685328937712E+06
 MD_INI| Cell lengths [bohr]      2.24884969E+02  2.24884969E+02  2.24884969E+02
 MD_INI| Cell lengths [ang]       1.19004000E+02  1.19004000E+02  1.19004000E+02
 MD_INI| Cell angles [deg]        9.00000000E+01  9.00000000E+01  9.00000000E+01

  Translating the system in order to center the QM fragment in the QM box.

 Number of electrons:                                                        180
 Number of occupied orbitals:                                                 90
 Number of molecular orbitals:                                                90

 Number of orbital functions:                                                620
 Number of independent orbital functions:                                    620

 Extrapolation method: ASPC


 SCF WAVEFUNCTION OPTIMIZATION

  ----------------------------------- OT ---------------------------------------
  Minimizer      : DIIS                : direct inversion
                                         in the iterative subspace
                                         using   7 DIIS vectors
                                         safer DIIS on
  Preconditioner : FULL_ALL            : diagonalization, state selective
  Precond_solver : DEFAULT
  stepsize       :    0.15000000                  energy_gap     :    0.08000000
  eps_taylor     :   0.10000E-15                  max_taylor     :             4
  ----------------------------------- OT ---------------------------------------

  Step     Update method      Time    Convergence         Total energy    Change
  ------------------------------------------------------------------------------
  Decoupling Energy:                                               0.0371104025
  Recoupling Energy:                                              -0.0063745549
     1 OT DIIS     0.15E+00    1.1     0.00092537      -255.8029313637 -2.56E+02
  Decoupling Energy:                                               0.0371210906
  Recoupling Energy:                                              -0.0063746935
     2 OT DIIS     0.15E+00    1.4     0.00041587      -255.8072240295 -4.29E-03
  Decoupling Energy:                                               0.0371277550
  Recoupling Energy:                                              -0.0063747956
     3 OT DIIS     0.15E+00    1.4     0.00037228      -255.8077199029 -4.96E-04
  Decoupling Energy:                                               0.0371212852
  Recoupling Energy:                                              -0.0063746999
     4 OT DIIS     0.15E+00    1.4     0.00014957      -255.8079919806 -2.72E-04
  Decoupling Energy:                                               0.0371369487
  Recoupling Energy:                                              -0.0063748859
     5 OT DIIS     0.15E+00    1.4     0.00004923      -255.8080296584 -3.77E-05
  Decoupling Energy:                                               0.0371276795
  Recoupling Energy:                                              -0.0063747811
     6 OT DIIS     0.15E+00    1.4     0.00001779      -255.8080336511 -3.99E-06
  Decoupling Energy:                                               0.0371313106
  Recoupling Energy:                                              -0.0063748226
     7 OT DIIS     0.15E+00    1.4     0.00000735      -255.8080341993 -5.48E-07
  Decoupling Energy:                                               0.0371301428
  Recoupling Energy:                                              -0.0063748095
     8 OT DIIS     0.15E+00    1.4     0.00000183      -255.8080343005 -1.01E-07
  Decoupling Energy:                                               0.0371306206
  Recoupling Energy:                                              -0.0063748146
     9 OT DIIS     0.15E+00    1.4     0.00000127      -255.8080343063 -5.75E-09
  Decoupling Energy:                                               0.0371304192
  Recoupling Energy:                                              -0.0063748126
    10 OT DIIS     0.15E+00    1.4     0.00000040      -255.8080343091 -2.80E-09

  *** SCF run converged in    10 steps ***


  Electronic density on regular grids:       -180.0000000001       -0.0000000001
  Core density on regular grids:              180.9999999999       -0.0000000001
  Total charge density on r-space grids:        0.9999999998
  Total charge density g-space grids:           0.9999999998

  Overlap energy of the core charge distribution:               0.00002367605301
  Self energy of the core charge distribution:               -615.71576003586028
  Core Hamiltonian energy:                                    191.83715153454165
  Hartree energy:                                             247.48551243213041
  Exchange-correlation energy:                                -79.67126389339623
  QM/MM Electrostatic energy:                                   0.25630197742878

  Total energy:                                              -255.80803430910265
  Decoupling Energy:                                               0.0371304353
  Recoupling Energy:                                              -0.0063748127

 ENERGY| Total FORCE_EVAL ( QMMM ) energy [a.u.]:          -1060.045711405067777

 MD| ***************************************************************************
 MD| Step number                                                               1
 MD| Time [fs]                                                          1.000000
 MD| Conserved quantity [hartree]                            -0.841545612455E+03
 MD| ---------------------------------------------------------------------------
 MD|                                          Instantaneous             Averages
 MD| CPU time per MD step [s]                    110.163299           110.163299
 MD| Energy drift per atom [K]           0.138208460318E+02   0.000000000000E+00
 MD| Potential energy [hartree]         -0.106004571141E+04  -0.106004571141E+04
 MD| Total kinetic energy [hartree]      0.218500098950E+03   0.218500098950E+03
 MD| QM kinetic energy [hartree]         0.120537399455E+00   0.120537399455E+00
 MD| Total temperature [K]                       273.923972           273.923972
 MD| QM temperature [K]                          373.163283           373.163283
 MD| ***************************************************************************

 -------------------------------------------------------------------------------
 -                                                                             -
 -                                DBCSR STATISTICS                             -
 -                                                                             -
 -------------------------------------------------------------------------------
 COUNTER                                    TOTAL       BLAS       SMM       ACC
 flops     5 x    26 x    26               446160     100.0%      0.0%      0.0%
 flops    13 x    26 x    26              1230320     100.0%      0.0%      0.0%
 flops     5 x    32 x    32              1351680     100.0%      0.0%      0.0%
 flops    26 x    26 x    26              2144272     100.0%      0.0%      0.0%
 flops    13 x    32 x    32              3727360     100.0%      0.0%      0.0%
 flops    26 x    26 x    32              5278208     100.0%      0.0%      0.0%
 flops    26 x    32 x    26              5278208     100.0%      0.0%      0.0%
 flops    32 x    26 x    26              5278208     100.0%      0.0%      0.0%
 flops    82 x    26 x    26              8314800     100.0%      0.0%      0.0%
 flops    26 x    26 x    44             11064768     100.0%      0.0%      0.0%
 flops    32 x    32 x    26             12992512     100.0%      0.0%      0.0%
 flops    26 x    32 x    32             12992512     100.0%      0.0%      0.0%
 flops    32 x    26 x    32             12992512     100.0%      0.0%      0.0%
 flops    26 x    26 x    41             13747136     100.0%      0.0%      0.0%
 flops     5 x     5 x    26             13856700     100.0%      0.0%      0.0%
 flops    72 x    26 x    26             14601600     100.0%      0.0%      0.0%
 flops    77 x    26 x    26             15615600     100.0%      0.0%      0.0%
 flops    82 x    26 x    44             19136832     100.0%      0.0%      0.0%
 flops    82 x    26 x    32             20467200     100.0%      0.0%      0.0%
 flops    82 x    32 x    26             20467200     100.0%      0.0%      0.0%
 flops    82 x    26 x    41             23776064     100.0%      0.0%      0.0%
 flops    80 x    26 x    26             24336000     100.0%      0.0%      0.0%
 flops    26 x    26 x    36             27158976     100.0%      0.0%      0.0%
 flops    26 x    32 x    44             27236352     100.0%      0.0%      0.0%
 flops    32 x    26 x    44             27236352     100.0%      0.0%      0.0%
 flops    32 x    32 x    32             31981568     100.0%      0.0%      0.0%
 flops    72 x    26 x    44             33606144     100.0%      0.0%      0.0%
 flops    26 x    32 x    41             33839104     100.0%      0.0%      0.0%
 flops    32 x    26 x    41             33839104     100.0%      0.0%      0.0%
 flops     5 x     5 x    32             34108800     100.0%      0.0%      0.0%
 flops    77 x    26 x    44             35939904     100.0%      0.0%      0.0%
 flops    72 x    26 x    32             35942400     100.0%      0.0%      0.0%
 flops    72 x    32 x    26             35942400     100.0%      0.0%      0.0%
 flops    13 x     5 x    26             37054940     100.0%      0.0%      0.0%
 flops     5 x    13 x    26             37119160     100.0%      0.0%      0.0%
 flops    77 x    26 x    32             38438400     100.0%      0.0%      0.0%
 flops    77 x    32 x    26             38438400     100.0%      0.0%      0.0%
 flops    72 x    26 x    41             41753088     100.0%      0.0%      0.0%
 flops    77 x    26 x    41             44652608     100.0%      0.0%      0.0%
 flops    82 x    26 x    36             46972224     100.0%      0.0%      0.0%
 flops    82 x    32 x    44             47106048     100.0%      0.0%      0.0%
 flops    82 x    32 x    32             50380800     100.0%      0.0%      0.0%
 flops    80 x    26 x    44             56010240     100.0%      0.0%      0.0%
 flops    82 x    32 x    41             58525696     100.0%      0.0%      0.0%
 flops    80 x    32 x    26             59904000     100.0%      0.0%      0.0%
 flops    80 x    26 x    32             59904000     100.0%      0.0%      0.0%
 flops     5 x    26 x     5             62290800     100.0%      0.0%      0.0%
 flops    26 x    32 x    36             66852864     100.0%      0.0%      0.0%
 flops    32 x    26 x    36             66852864     100.0%      0.0%      0.0%
 flops    32 x    32 x    44             67043328     100.0%      0.0%      0.0%
 flops    80 x    26 x    41             69588480     100.0%      0.0%      0.0%
 flops    72 x    26 x    36             82487808     100.0%      0.0%      0.0%
 flops    72 x    32 x    44             82722816     100.0%      0.0%      0.0%
 flops    32 x    32 x    41             83296256     100.0%      0.0%      0.0%
 flops    77 x    26 x    36             88216128     100.0%      0.0%      0.0%
 flops    77 x    32 x    44             88467456     100.0%      0.0%      0.0%
 flops    72 x    32 x    32             88473600     100.0%      0.0%      0.0%
 flops    13 x     5 x    32             91212160     100.0%      0.0%      0.0%
 flops     5 x    13 x    32             91370240     100.0%      0.0%      0.0%
 flops    77 x    32 x    32             94617600     100.0%      0.0%      0.0%
 flops    72 x    32 x    41            102776832     100.0%      0.0%      0.0%
 flops    13 x    13 x    26            105192360     100.0%      0.0%      0.0%
 flops    77 x    32 x    41            109914112     100.0%      0.0%      0.0%
 flops    82 x    32 x    36            115623936     100.0%      0.0%      0.0%
 flops    80 x    26 x    36            137479680     100.0%      0.0%      0.0%
 flops    80 x    32 x    44            137871360     100.0%      0.0%      0.0%
 flops    80 x    32 x    32            147456000     100.0%      0.0%      0.0%
 flops     5 x    32 x     5            153331200     100.0%      0.0%      0.0%
 flops    32 x    32 x    36            164560896     100.0%      0.0%      0.0%
 flops    80 x    32 x    41            171294720     100.0%      0.0%      0.0%
 flops     5 x    26 x    13            171771600     100.0%      0.0%      0.0%
 flops    13 x    26 x     5            171771600     100.0%      0.0%      0.0%
 flops    72 x    32 x    36            203046912     100.0%      0.0%      0.0%
 flops    77 x    32 x    36            217147392     100.0%      0.0%      0.0%
 flops    13 x    13 x    32            258935040     100.0%      0.0%      0.0%
 flops    80 x    32 x    36            338411520     100.0%      0.0%      0.0%
 flops     5 x    32 x    13            422822400     100.0%      0.0%      0.0%
 flops    13 x    32 x     5            422822400     100.0%      0.0%      0.0%
 flops    13 x    26 x    13            473673200     100.0%      0.0%      0.0%
 flops    13 x    32 x    13           1165964800     100.0%      0.0%      0.0%
 flops inhomo. stacks                           0       0.0%      0.0%      0.0%
 flops total                         7.537547E+09     100.0%      0.0%      0.0%
 flops max/rank                    379.685980E+06     100.0%      0.0%      0.0%
 matmuls inhomo. stacks                         0       0.0%      0.0%      0.0%
 matmuls total                             773529     100.0%      0.0%      0.0%
 number of processed stacks                122646     100.0%      0.0%      0.0%
 average stack size                                     6.3       0.0       0.0
 marketing flops                     8.216772E+09
 -------------------------------------------------------------------------------
 # multiplications                            299
 max memory usage/rank               1.442955E+09
 # max total images/rank                        2
 # max 3D layers                                1
 # MPI messages exchanged                 1109888
 MPI messages size (bytes):
  total size                         5.274082E+09
  min size                           0.000000E+00
  max size                          28.864000E+03
  average size                       4.751904E+03
 MPI breakdown and total messages size (bytes):
             size <=      128              810659                        0
       128 < size <=     8192               35232                259217520
      8192 < size <=    32768              263997               5014864368
     32768 < size <=   131072                   0                        0
    131072 < size <=  4194304                   0                        0
   4194304 < size <= 16777216                   0                        0
  16777216 < size                               0                        0
 -------------------------------------------------------------------------------

 *** WARNING in dbcsr_mm.F:294 :: Using a non-square number of MPI ranks ***
 *** might lead to poor performance. Used ranks: 128 Suggested: 121 256  ***

 -------------------------------------------------------------------------------
 -                                                                             -
 -                      DBCSR MESSAGE PASSING PERFORMANCE                      -
 -                                                                             -
 -------------------------------------------------------------------------------
 ROUTINE             CALLS      AVE VOLUME [Bytes]
 MP_Bcast               81                     12.
 MP_Allreduce         1742                     10.
 MP_Alltoall          1305                  26698.
 MP_ISend            18848                   3820.
 MP_IRecv            18724                   3570.
 -------------------------------------------------------------------------------

 -------------------------------------------------------------------------------
 -                                                                             -
 -                                GRID STATISTICS                              -
 -                                                                             -
 -------------------------------------------------------------------------------
 LP    KERNEL             BACKEND                              COUNT     PERCENT
 3     collocate ortho    REF                                 542648      23.60%
 3     integrate ortho    REF                                 509386      22.16%
 4     integrate ortho    REF                                 354648      15.43%
 4     collocate ortho    REF                                 329583      14.34%
 2     collocate ortho    REF                                 259911      11.30%
 2     integrate ortho    REF                                 229335       9.97%
 5     integrate ortho    REF                                  38773       1.69%
 0     collocate general  REF                                  17408       0.76%
 1     integrate general  REF                                  17408       0.76%
 -------------------------------------------------------------------------------

 MEMORY| Estimated peak process memory [MiB]                                1458

 -------------------------------------------------------------------------------
 -                                                                             -
 -                         MESSAGE PASSING PERFORMANCE                         -
 -                                                                             -
 -------------------------------------------------------------------------------

 ROUTINE             CALLS      AVE VOLUME [Bytes]
 MP_Group                8
 MP_Bcast             6716               10962426.
 MP_Allreduce          903                1295760.
 MP_Sync                19
 MP_Alltoall           365                9718104.
 MP_ISendRecv         8636                  32000.
 MP_Wait             12028
 MP_comm_split           6
 MP_ISend             3086                 235330.
 MP_IRecv             3036                 238640.
 MP_Recv                28                  29760.
 -------------------------------------------------------------------------------


 -------------------------------------------------------------------------------
 -                                                                             -
 -                           R E F E R E N C E S                               -
 -                                                                             -
 -------------------------------------------------------------------------------
 
 CP2K version 8.2, the CP2K developers group (2021).
 CP2K is freely available from https://www.cp2k.org/ .

 Kuehne,Thomas D.; Iannuzzi,Marcella; Del Ben,Mauro;
 Rybkin,Vladimir V.; Seewald,Patrick; Stein,Frederick; Laino,Teodoro;
 Khaliullin,Rustam Z.; Schuett,Ole; Schiffmann,Florian; Golze,Dorothea;
 Wilhelm,Jan; Chulkov,Sergey; Bani-Hashemian,Mohammad Hossein;
 Weber,Valery; Borstnik,Urban; Taillefumier,Mathieu;
 Jakobovits,Alice Shoshana; Lazzaro,Alfio; Pabst,Hans; Mueller,Tiziano;
 Schade,Robert; Guidon,Manuel; Andermatt,Samuel; Holmberg,Nico;
 Schenter,Gregory K.; Hehn,Anna; Bussy,Augustin; Belleflamme,Fabian;
 Tabacchi,Gloria; Gloess,Andreas; Lass,Michael; Bethune,Iain;
 Mundy,Christopher J.; Plessl,Christian; Watkins,Matt;
 VandeVondele,Joost; Krack,Matthias; Hutter,Juerg. 
 The Journal of Chemical Physics, 152 (19), (2020). 
 CP2K: An electronic structure and molecular dynamics software package -
 Quickstep: Efficient and accurate electronic structure calculations.
 https://doi.org/10.1063/5.0007045

 Schuett, Ole; Messmer, Peter; Hutter, Juerg; VandeVondele, Joost. 
 Electronic Structure Calculations on Graphics Processing Units, John
 Wiley & Sons, Ltd, 173-190 (2016). 
 GPU-Accelerated Sparse Matrix-Matrix Multiplication for
 Linear Scaling Density Functional Theory.
 https://doi.org/10.1002/9781118670712.ch8

 Borstnik, U; VandeVondele, J; Weber, V; Hutter, J. 
 PARALLEL COMPUTING, 40 (5-6), 47-58 (2014). 
 Sparse matrix multiplication: The distributed block-compressed sparse
 row library.
 https://doi.org/10.1016/j.parco.2014.03.012

 Hutter, J; Iannuzzi, M; Schiffmann, F; VandeVondele, J. 
 WIREs Comput Mol Sci., 4 (1), 15-25 (2014). 
 CP2K: atomistic simulations of condensed matter systems.
 https://doi.org/10.1002/wcms.1159

 Marek, A; Blum, V; Johanni, R; Havu, V; Lang, B; Auckenthaler, T;
 Heinecke, A; Bungartz, H; Lederer, H. 
 Journal of Physics: Condensed Matter, 26 (21), (2014). 
 The ELPA library: scalable parallel eigenvalue solutions for
 electronic structure
 theory and computational science.
 https://doi.org/10.1088/0953-8984/26/21/213201

 VandeVondele, J; Hutter, J. 
 JOURNAL OF CHEMICAL PHYSICS, 127 (11), 114105 (2007). 
 Gaussian basis sets for accurate calculations on molecular systems in
 gas and condensed phases.
 https://doi.org/10.1063/1.2770708

 Kuhne, TD; Krack, M; Mohamed, FR; Parrinello, M. 
 PHYSICAL REVIEW LETTERS, 98 (6), 066401 (2007). 
 Efficient and accurate Car-Parrinello-like approach to
 Born-Oppenheimer molecular dynamics.
 https://doi.org/10.1103/PhysRevLett.98.066401

 Laino, T; Mohamed, F; Laio, A; Parrinello, M. 
 JOURNAL OF CHEMICAL THEORY AND COMPUTATION, 2 (5), 1370-1378 (2006). 
 An efficient linear-scaling electrostatic coupling for treating
 periodic boundary conditions in QM/MM simulations.
 https://doi.org/10.1021/ct6001169

 Laino, T; Mohamed, F; Laio, A; Parrinello, M. 
 JOURNAL OF CHEMICAL THEORY AND COMPUTATION, 1 (6), 1176-1184 (2005). 
 An efficient real space multigrid QM/MM electrostatic coupling.
 https://doi.org/10.1021/ct050123f

 Krack, M. 
 THEORETICAL CHEMISTRY ACCOUNTS, 114 (1-3), 145-152 (2005). 
 Pseudopotentials for H to Kr optimized for gradient-corrected
 exchange-correlation functionals.
 https://doi.org/10.1007/s00214-005-0655-y

 VandeVondele, J; Krack, M; Mohamed, F; Parrinello, M; Chassaing, T;
 Hutter, J. COMPUTER PHYSICS COMMUNICATIONS, 167 (2), 103-128 (2005). 
 QUICKSTEP: Fast and accurate density functional calculations using a
 mixed Gaussian and plane waves approach.
 https://doi.org/10.1016/j.cpc.2004.12.014

 Frigo, M; Johnson, SG. 
 PROCEEDINGS OF THE IEEE, 93 (2), 216-231 (2005). 
 The design and implementation of FFTW3.
 https://doi.org/10.1109/JPROC.2004.840301

 Kolafa, J. 
 JOURNAL OF COMPUTATIONAL CHEMISTRY, 25 (3), 335-342 (2004). 
 Time-reversible always stable predictor-corrector method for molecular dynamics of polarizable molecules.
 https://doi.org/10.1002/jcc.10385

 VandeVondele, J; Hutter, J. 
 JOURNAL OF CHEMICAL PHYSICS, 118 (10), 4365-4369 (2003). 
 An efficient orbital transformation method for electronic structure
 calculations.
 https://doi.org/10.1063/1.1543154

 Hartwigsen, C; Goedecker, S; Hutter, J. 
 PHYSICAL REVIEW B, 58 (7), 3641-3662 (1998). 
 Relativistic separable dual-space Gaussian pseudopotentials from H to Rn.
 https://doi.org/10.1103/PhysRevB.58.3641

 Lippert, G; Hutter, J; Parrinello, M. 
 MOLECULAR PHYSICS, 92 (3), 477-487 (1997). 
 A hybrid Gaussian and plane wave density functional scheme.
 https://doi.org/10.1080/002689797170220

 Perdew, JP; Burke, K; Ernzerhof, M. 
 PHYSICAL REVIEW LETTERS, 77 (18), 3865-3868 (1996). 
 Generalized gradient approximation made simple.
 https://doi.org/10.1103/PhysRevLett.77.3865

 Goedecker, S; Teter, M; Hutter, J. 
 PHYSICAL REVIEW B, 54 (3), 1703-1710 (1996). 
 Separable dual-space Gaussian pseudopotentials.
 https://doi.org/10.1103/PhysRevB.54.1703

 ESSMANN, U; PERERA, L; BERKOWITZ, ML; DARDEN, T; LEE, H; PEDERSEN, LG. 
 JOURNAL OF CHEMICAL PHYSICS, 103 (19), 8577-8593 (1995). 
 A SMOOTH PARTICLE MESH EWALD METHOD.
 https://doi.org/10.1063/1.470117

 BLOCHL, PE. 
 JOURNAL OF CHEMICAL PHYSICS, 103 (17), 7422-7428 (1995). 
 ELECTROSTATIC DECOUPLING OF PERIODIC IMAGES OF PLANE-WAVE-EXPANDED
 DENSITIES AND DERIVED ATOMIC POINT CHARGES.
 https://doi.org/10.1063/1.470314


 -------------------------------------------------------------------------------
 -                                                                             -
 -                                T I M I N G                                  -
 -                                                                             -
 -------------------------------------------------------------------------------
 SUBROUTINE                       CALLS  ASD         SELF TIME        TOTAL TIME
                                MAXIMUM       AVERAGE  MAXIMUM  AVERAGE  MAXIMUM
 CP2K                                 1  1.0    0.438    0.464  170.281  170.283
 qs_mol_dyn_low                       1  2.0    0.026    0.029  111.311  113.155
 velocity_verlet                      1  3.0    0.021    0.022   58.464   58.469
 qmmm_env_create                      1  2.0    9.673    9.822   56.672   56.676
 qmmm_forces                          2  3.5    0.037    0.040   47.250   47.252
 qmmm_forces_with_gaussian            2  4.5    1.472    1.486   46.640   47.062
 fist_init                            1  3.0    0.000    0.000   40.812   40.812
 qmmm_el_coupling                     2  3.5    0.000    0.000   35.308   35.501
 qmmm_elec_with_gaussian              2  4.5    1.499    1.569   35.306   35.499
 qs_forces                            2  3.5    0.001    0.001   25.269   25.271
 force_field_control                  1  4.0    0.000    0.000   23.979   24.297
 pw_restrict_s3                       6  5.5    5.990    6.205   23.451   23.712
 qs_energies                          2  4.5    0.001    0.001   22.766   22.768
 scf_env_do_scf                       2  5.5    0.000    0.000   21.567   21.567
 scf_env_do_scf_inner_loop           15  6.7    0.000    0.001   19.291   19.294
 pw_integral_ab                     899  6.9   18.454   18.807   18.532   18.854
 rdparm_amber_8                       2  6.5   14.693   15.212   17.946   18.137
 qmmm_force_with_gaussian_low         2  5.5    0.000    0.000   17.465   17.867
 rebuild_ks_matrix                   17  8.3    0.000    0.001   17.820   17.826
 qs_ks_build_kohn_sham_matrix        17  9.3    0.005    0.007   17.820   17.826
 qmmm_elec_with_gaussian:spline       2  5.5    0.000    0.000   17.378   17.589
 pw_prolongate_s3                     6  6.5    4.500    4.717   17.378   17.589
 topology_control                     1  4.0    0.000    0.000   16.567   16.759
 force_field_pack                     1  5.0    0.012    0.022   15.533   15.780
 qs_ks_update_qs_env                 17  7.6    0.000    0.000   15.379   15.385
 qmmm_forces_gaussian_low_R           2  6.5    0.000    0.000   14.648   14.966
 qmmm_forces_with_gaussian_LG         2  7.5   14.648   14.966   14.648   14.966
 force_field_pack_splines             2  6.0    0.017    0.027   11.747   11.985
 qmmm_elec_with_gaussian_low          2  5.5    0.000    0.000   11.613   11.820
 get_nonbond_storage                  2  7.0    0.323    0.374   11.493   11.739
 pw_transfer                        362 11.8    0.041    0.052   10.927   11.493
 set_potparm_index                  602  8.0    0.447    0.457   11.170   11.463
 fft_wrap_pw1pw2                    301 12.9    0.004    0.005   10.635   11.199
 init_genpot                        604  9.0   10.751   11.024   10.751   11.024
 fft_wrap_pw1pw2_200                191 14.2    1.072    1.236   10.424   11.013
 mp_sum_dm3                          13  5.2   10.178   10.592   10.178   10.592
 qmmm_elec_gaussian_low_R             2  6.5    0.000    0.000   10.371   10.549
 qmmm_elec_with_gaussian_LG           2  7.5   10.371   10.549   10.371   10.549
 connectivity_control                 2  4.0    0.000    0.000    9.962   10.000
 read_connectivity_amber              1  6.0    0.000    0.000    9.639    9.652
 qs_vxc_create                       17 10.3    0.001    0.002    9.089    9.095
 xc_vxc_pw_create                    17 11.3    0.091    0.126    9.088    9.094
 fft3d_ps                           301 14.9    4.393    4.811    7.902    8.597
 read_force_field_amber               1  5.0    0.013    0.014    8.320    8.534
 sum_up_and_integrate                17 10.3    0.043    0.053    6.490    6.500
 integrate_v_rspace                  17 11.3    0.001    0.001    6.447    6.463
 qs_rho_update_rho                   17  7.7    0.000    0.001    6.436    6.439
 calculate_rho_elec                  17  8.7    0.016    0.019    6.435    6.438
 rs_pw_transfer                     148 11.6    0.003    0.003    5.823    6.257
 pw_zero                            746  6.7    5.744    6.045    5.744    6.045
 pw_axpy                            566  7.8    5.748    5.968    5.748    5.968
 density_rs2pw                       17  9.7    0.001    0.001    5.327    5.754
 xc_rho_set_and_dset_create          17 12.3    0.063    0.067    4.234    4.897
 topology_coordinate_pack             2  4.0    0.001    0.001    4.412    4.615
 topology_coordinate_pack_11          2  5.0    4.106    4.310    4.106    4.310
 mp_waitany                        3036 13.4    2.979    3.739    2.979    3.739
 mp_alltoall_z22v                   301 16.9    2.568    3.610    2.568    3.610
 grid_collocate_task_list            17  9.7    1.046    3.507    1.046    3.507
 -------------------------------------------------------------------------------

 The number of warnings for this run is : 1
 
 -------------------------------------------------------------------------------
  **** **** ******  **  PROGRAM ENDED AT                 2021-08-30 17:54:38.606
 ***** ** ***  *** **   PROGRAM RAN ON                                 nid001961
 **    ****   ******    PROGRAM RAN BY                                     hjbio
 ***** **    ** ** **   PROGRAM PROCESS ID                                110903
  **** **  *******  **  PROGRAM STOPPED IN /lus/cls01095/work/d118/d118/hjbio/qm
                                           mm-benchmarking/archer2/CPU/cp2kMD/CB
                                           D_PHY/1STEPS/4NODES/32CPN/1THREADS
