 DBCSR| CPU Multiplication driver                                           BLAS
 DBCSR| Multrec recursion limit                                              512
 DBCSR| Multiplication stack size                                           1000
 DBCSR| Maximum elements for images                                    UNLIMITED
 DBCSR| Multiplicative factor virtual images                                   1
 DBCSR| Use multiplication densification                                       T
 DBCSR| Multiplication size stacks                                             3
 DBCSR| Use memory pool for CPU allocation                                     F
 DBCSR| Number of 3D layers                                               SINGLE
 DBCSR| Use MPI memory allocation                                              F
 DBCSR| Use RMA algorithm                                                      F
 DBCSR| Use Communication thread                                               T
 DBCSR| Communication thread load                                             75
 DBCSR| MPI: My node id                                                        0
 DBCSR| MPI: Number of nodes                                                   8
 DBCSR| OMP: Current number of threads                                         4
 DBCSR| OMP: Max number of threads                                             4
 DBCSR| Split modifier for TAS multiplication algorithm                  1.0E+00


  **** **** ******  **  PROGRAM STARTED AT               2021-10-20 16:06:53.500
 ***** ** ***  *** **   PROGRAM STARTED ON                             nid001701
 **    ****   ******    PROGRAM STARTED BY                                 hjbio
 ***** **    ** ** **   PROGRAM PROCESS ID                                 44008
  **** **  *******  **  PROGRAM STARTED IN /lus/cls01095/work/d118/d118/hjbio/qm
                                           mm-benchmarking/archer2/CPU/cp2kMD/MQ
                                           AE-B3LYP-large/6STEPS/1NODES/32CPN/4T
                                           HREADS

 CP2K| version string:                                          CP2K version 8.2
 CP2K| source code revision number:                                  git:310b7ab
 CP2K| cp2kflags: omp libint fftw3 libxc elpa parallel mpi3 scalapack plumed2   
 CP2K| is freely available from                            https://www.cp2k.org/
 CP2K| Program compiled at                          Thu 10 Jun 17:43:51 BST 2021
 CP2K| Program compiled on                                                 uan01
 CP2K| Program compiled for                                              ARCHER2
 CP2K| Data directory path              /work/d118/d118/hjbio/CP2K/cp2k-8.2/data
 CP2K| Input file name                                             mqae-cp2k.inp

 GLOBAL| Force Environment number                                              1
 GLOBAL| Basis set file name                                     EMSL_BASIS_SETS
 GLOBAL| Potential file name                                           POTENTIAL
 GLOBAL| MM Potential file name                                     MM_POTENTIAL
 GLOBAL| Coordinate file name                                           mqae.pdb
 GLOBAL| Method name                                                        CP2K
 GLOBAL| Project name                                           MQAE-B3LYP-large
 GLOBAL| Run type                                                             MD
 GLOBAL| FFT library                                                       FFTW3
 GLOBAL| Diagonalization library                                            ELPA
 GLOBAL| Minimum number of eigenvectors for ELPA usage                        16
 GLOBAL| Orthonormality check for eigenvectors                          DISABLED
 GLOBAL| Matrix multiplication library                                    SCALAP
 GLOBAL| All-to-all communication in single precision                          F
 GLOBAL| FFTs using library dependent lengths                                  F
 GLOBAL| Grid backend                                                       AUTO
 GLOBAL| Global print level                                                  LOW
 GLOBAL| MPI I/O enabled                                                       T
 GLOBAL| Total number of message passing processes                             8
 GLOBAL| Number of threads for this process                                    4
 GLOBAL| This output is from process                                           0
 GLOBAL| CPU model name                          AMD EPYC 7742 64-Core Processor
 GLOBAL| CPUID                                                              1002

 MEMORY| system memory details [Kb]
 MEMORY|                        rank 0           min           max       average
 MEMORY| MemTotal            263568576     263568576     263568576     263568576
 MEMORY| MemFree             254212748     254212748     254212748     254212748
 MEMORY| Buffers                 98408         98408         98408         98408
 MEMORY| Cached                 874212        874212        874212        874212
 MEMORY| Slab                  1661244       1661244       1661244       1661244
 MEMORY| SReclaimable           181140        181140        181140        181140
 MEMORY| MemLikelyFree       255366508     255366508     255366508     255366508



                      ************* ******** ***********   
                     ************* **********************  
                     ****     **** ****      ***********   
                     ******** ****  *******     ****       
                     *******  ****   *******   ****        
                     ****     ****       ****  ****        
                     ****     **** **********  ****        
                      ****     **** ********    ****       
                     FRONTIERS IN SIMULATION TECHNOLOGY    
                                                           
                        C.J. Mundy, S. Balasubramanian,    
                     Ken Bagchi, J. Hutter, Ari Seitsonen  
                      IFW Kuo, T. Laino, J. VandeVondele   
                                 Version 1.0               

                                                           


 EWALD| Summation is done by:                                               SPME
 EWALD| Alpha parameter [       ANGSTROM^-1]                              0.4000
 EWALD| Real Space Cutoff [          ANGSTROM]                            8.4348
 EWALD| G-space max. Miller index                         80        80        80
 EWALD| Spline interpolation order                                             6

 FORCEFIELD| WARNING: A non Critical ForceField parameter is missing! CP2K GOES!
 FORCEFIELD| Non critical parameters are:Urey-Bradley,Torsions,Impropers, Opbends and 1-4
 FORCEFIELD| All missing parameters will not contribute to the potential energy!
 FORCEFIELD| Activate the print key FF_INFO to have a list of missing parameters

 CHARGE_INFO| Total Charge of the Classical System:                     0.000000

 SPLINE_INFO| Generating 465 splines for NONBONDED14 interactions 
              Due to 30 different atomic kinds
  ...46  ...92  ...138  ...184  ...230  ...276  ...322  ...368  ...414  ...460
 SPLINE_INFO| Number of unique splines computed:            22
 SPLINE_INFO| Done

 SPLINE_INFO| Generating 465 splines for NONBONDED interactions 
              Due to 30 different atomic kinds
  ...46  ...92  ...138  ...184  ...230  ...276  ...322  ...368  ...414  ...460
 SPLINE_INFO| Number of unique splines computed:            22
 SPLINE_INFO| Done

 *******************************************************************************
 *******************************************************************************
 **                                                                           **
 **     #####                         ##              ##                      **
 **    ##   ##            ##          ##              ##                      **
 **   ##     ##                       ##            ######                    **
 **   ##     ##  ##   ##  ##   #####  ##  ##   ####   ##    #####    #####    **
 **   ##     ##  ##   ##  ##  ##      ## ##   ##      ##   ##   ##  ##   ##   **
 **   ##  ## ##  ##   ##  ##  ##      ####     ###    ##   ######   ######    **
 **    ##  ###   ##   ##  ##  ##      ## ##      ##   ##   ##       ##        **
 **     #######   #####   ##   #####  ##  ##  ####    ##    #####   ##        **
 **           ##                                                    ##        **
 **                                                                           **
 **                                                ... make the atoms dance   **
 **                                                                           **
 **            Copyright (C) by CP2K developers group (2000-2021)             **
 **                      J. Chem. Phys. 152, 194103 (2020)                    **
 **                                                                           **
 *******************************************************************************


 TOTAL NUMBERS AND MAXIMUM NUMBERS

  Total number of            - Atomic kinds:                                   4
                             - Atoms:                                         34
                             - Shell sets:                                   120
                             - Shells:                                       156
                             - Primitive Cartesian functions:                278
                             - Cartesian basis functions:                    350
                             - Spherical basis functions:                    332

  Maximum angular momentum of- Orbital basis functions:                        2
                             - Local part of the GTH pseudopotential:          2
                             - Non-local part of the GTH pseudopotential:      0


 SCF PARAMETERS         Density guess:                                   RESTART
                        --------------------------------------------------------
                        max_scf:                                              20
                        max_scf_history:                                       0
                        max_diis:                                              4
                        --------------------------------------------------------
                        eps_scf:                                        1.00E-06
                        eps_scf_history:                                0.00E+00
                        eps_diis:                                       1.00E-01
                        eps_eigval:                                     1.00E-05
                        --------------------------------------------------------
                        level_shift [a.u.]:                                 0.00
                        --------------------------------------------------------
                        Outer loop SCF in use 
                        No variables optimised in outer loop
                        eps_scf                                         1.00E-06
                        max_scf                                               20
                        No outer loop optimization
                        step_size                                       5.00E-01

 *******************************************************************************
 *******************************************************************************
 **                                                                           **
 **             #######  ##     ## ##     ## ##     ##                        **
 **            ##     ## ###   ### ###   ### ###   ###                        **
 **            ##     ## #### #### #### #### #### ####                        **
 **            ##     ## ## ### ## ## ### ## ## ### ##                        **
 **            ##  ## ## ##     ## ##     ## ##     ##                        **
 **            ##    ##  ##     ## ##     ## ##     ##  T.Laino and F.Mohamed **
 **             ##### ## ##     ## ##     ## ##     ##  2005 - 2015           **
 **                                                                           **
 **                                                     Calculation Started.. **
 *******************************************************************************
 *******************************************************************************

 MD_PAR| Molecular dynamics protocol (MD input parameters)
 MD_PAR| Ensemble type                                                       NVE
 MD_PAR| Number of time steps                                                  6
 MD_PAR| Time step [fs]                                                 1.000000
 MD_PAR| Temperature [K]                                              300.000000
 MD_PAR| Temperature tolerance [K]                                      0.000000
 MD_PAR| Print MD information every                                    1 step(s)
 MD_PAR| File type   Print frequency [steps]                          File names
 MD_PAR| Coordinates          1                       MQAE-B3LYP-large-pos-1.xyz
 MD_PAR| Velocities           1                       MQAE-B3LYP-large-vel-1.xyz
 MD_PAR| Energies             1                          MQAE-B3LYP-large-1.ener
 MD_PAR| Dump                20                       MQAE-B3LYP-large-1.restart

 ROT| Rotational analysis information
 ROT| Principal axes and moments of inertia [a.u.]
 ROT|                           1                   2                   3
 ROT| Eigenvalues      8.16955424013E+10   8.26770351780E+10   8.33145263212E+10
 ROT|      x              0.339476722416      0.927826629059     -0.154574581827
 ROT|      y              0.779693760491     -0.369496170761     -0.505519751982
 ROT|      z              0.526149403486     -0.051091351539      0.848855982490
 ROT| Number of rotovibrational vectors                                        6

 DOF| Calculation of degrees of freedom
 DOF| Number of atoms                                                       7186
 DOF| Number of intramolecular constraints                                     0
 DOF| Number of intermolecular constraints                                     0
 DOF| Invariants (translations + rotations)                                    3
 DOF| Degrees of freedom                                                   21555

 DOF| Restraints information
 DOF| Number of intramolecular restraints                                      0
 DOF| Number of intermolecular restraints                                      0

 MD_VEL| Velocities initialization
 MD_VEL| Initial temperature [K]                                      300.000000
 MD_VEL| COM velocity            -0.0000000000     0.0000000000    -0.0000000000

  Translating the system in order to center the QM fragment in the QM box.

 Number of electrons:                                                         94
 Number of occupied orbitals:                                                 47
 Number of molecular orbitals:                                                47

 Number of orbital functions:                                                332
 Number of independent orbital functions:                                    332

 Extrapolation method: initial_guess


 SCF WAVEFUNCTION OPTIMIZATION

  ----------------------------------- OT ---------------------------------------
  Minimizer      : DIIS                : direct inversion
                                         in the iterative subspace
                                         using   7 DIIS vectors
                                         safer DIIS on
  Preconditioner : FULL_ALL            : diagonalization, state selective
  Precond_solver : DEFAULT
  stepsize       :    0.15000000                  energy_gap     :    0.08000000
  eps_taylor     :   0.10000E-15                  max_taylor     :             4
  ----------------------------------- OT ---------------------------------------

  Step     Update method      Time    Convergence         Total energy    Change
  ------------------------------------------------------------------------------
  Decoupling Energy:                                               0.0283460848
  Recoupling Energy:                                              -0.0186066200

 *** WARNING in hfx_energy_potential.F:592 :: The Kohn Sham matrix is not  ***
 *** 100% occupied. This may result in incorrect Hartree-Fock results. Try ***
 *** to decrease EPS_PGF_ORB and EPS_FILTER_MATRIX in the QS section. For  ***
 *** more information see FAQ: https://www.cp2k.org/faq:hfx_eps_warning    ***

     1 OT DIIS     0.15E+00    9.2     0.00000025      -146.5977626376 -1.47E+02

  *** SCF run converged in     1 steps ***


  Electronic density on regular grids:        -94.0000165540       -0.0000165540
  Core density on regular grids:               94.9999999999       -0.0000000001
  Total charge density on r-space grids:        0.9999834459
  Total charge density g-space grids:           0.9999834459

  Overlap energy of the core charge distribution:               0.00000599177744
  Self energy of the core charge distribution:               -359.57183942644110
  Core Hamiltonian energy:                                    110.60238234958592
  Hartree energy:                                             145.62298263967088
  Exchange-correlation energy:                                -35.08977447599262
  Hartree-Fock Exchange energy:                                -7.83561671024789
  QM/MM Electrostatic energy:                                  -0.32590300597718

  Total energy:                                              -146.59776263762458

  outer SCF iter =    1 RMS gradient =   0.25E-06 energy =       -146.5977626376
  outer SCF loop converged in   1 iterations or    1 steps

  Decoupling Energy:                                               0.0283460885
  Recoupling Energy:                                              -0.0186066196

 ENERGY| Total FORCE_EVAL ( QMMM ) energy [a.u.]:           -125.274615357601448

 MD_INI| MD initialization
 MD_INI| Potential energy [hartree]                          -0.125274615358E+03
 MD_INI| Total kinetic energy [hartree]                       0.102391057087E+02
 MD_INI| QM kinetic energy [hartree]                          0.538313910515E-01
 MD_INI| Total temperature [K]                                        300.000000
 MD_INI| QM temperature [K]                                           333.305658
 MD_INI| Cell volume [bohr^3]                                 4.911308927827E+05
 MD_INI| Cell volume [ang^3]                                  7.277808868775E+04
 MD_INI| Cell lengths [bohr]      7.88979558E+01  7.88979558E+01  7.88979558E+01
 MD_INI| Cell lengths [ang]       4.17510000E+01  4.17510000E+01  4.17510000E+01
 MD_INI| Cell angles [deg]        9.00000000E+01  9.00000000E+01  9.00000000E+01

  Translating the system in order to center the QM fragment in the QM box.

 Number of electrons:                                                         94
 Number of occupied orbitals:                                                 47
 Number of molecular orbitals:                                                47

 Number of orbital functions:                                                332
 Number of independent orbital functions:                                    332

 Extrapolation method: ASPC


 SCF WAVEFUNCTION OPTIMIZATION

  ----------------------------------- OT ---------------------------------------
  Minimizer      : DIIS                : direct inversion
                                         in the iterative subspace
                                         using   7 DIIS vectors
                                         safer DIIS on
  Preconditioner : FULL_ALL            : diagonalization, state selective
  Precond_solver : DEFAULT
  stepsize       :    0.15000000                  energy_gap     :    0.08000000
  eps_taylor     :   0.10000E-15                  max_taylor     :             4
  ----------------------------------- OT ---------------------------------------

  Step     Update method      Time    Convergence         Total energy    Change
  ------------------------------------------------------------------------------
  Decoupling Energy:                                               0.0283463393
  Recoupling Energy:                                              -0.0186067276

 *** WARNING in hfx_energy_potential.F:592 :: The Kohn Sham matrix is not  ***
 *** 100% occupied. This may result in incorrect Hartree-Fock results. Try ***
 *** to decrease EPS_PGF_ORB and EPS_FILTER_MATRIX in the QS section. For  ***
 *** more information see FAQ: https://www.cp2k.org/faq:hfx_eps_warning    ***

     1 OT DIIS     0.15E+00    7.4     0.00263344      -146.4802776562 -1.46E+02
  Decoupling Energy:                                               0.0283348436
  Recoupling Energy:                                              -0.0186023755
     2 OT DIIS     0.15E+00    5.3     0.00099820      -146.4906369351 -1.04E-02
  Decoupling Energy:                                               0.0283386056
  Recoupling Energy:                                              -0.0186029443
     3 OT DIIS     0.15E+00    5.3     0.00037983      -146.4923378121 -1.70E-03
  Decoupling Energy:                                               0.0283352659
  Recoupling Energy:                                              -0.0186018418
     4 OT DIIS     0.15E+00    5.3     0.00014245      -146.4925389018 -2.01E-04
  Decoupling Energy:                                               0.0283369490
  Recoupling Energy:                                              -0.0186025014
     5 OT DIIS     0.15E+00    5.3     0.00005119      -146.4925548309 -1.59E-05
  Decoupling Energy:                                               0.0283364431
  Recoupling Energy:                                              -0.0186022736
     6 OT DIIS     0.15E+00    5.3     0.00001954      -146.4925572148 -2.38E-06
  Decoupling Energy:                                               0.0283365050
  Recoupling Energy:                                              -0.0186023528
     7 OT DIIS     0.15E+00    5.3     0.00000601      -146.4925575406 -3.26E-07
  Decoupling Energy:                                               0.0283365504
  Recoupling Energy:                                              -0.0186023485
     8 OT DIIS     0.15E+00    5.3     0.00000292      -146.4925575856 -4.50E-08
  Decoupling Energy:                                               0.0283365225
  Recoupling Energy:                                              -0.0186023520
     9 OT DIIS     0.15E+00    5.3     0.00000099      -146.4925575923 -6.72E-09

  *** SCF run converged in     9 steps ***


  Electronic density on regular grids:        -93.9999802765        0.0000197235
  Core density on regular grids:               94.9999999999       -0.0000000001
  Total charge density on r-space grids:        1.0000197234
  Total charge density g-space grids:           1.0000197234

  Overlap energy of the core charge distribution:               0.00003300770837
  Self energy of the core charge distribution:               -359.57183942644110
  Core Hamiltonian energy:                                    110.79302692652604
  Hartree energy:                                             145.52494446129992
  Exchange-correlation energy:                                -35.13662043681781
  Hartree-Fock Exchange energy:                                -7.84755937238476
  QM/MM Electrostatic energy:                                  -0.25454275218761

  Total energy:                                              -146.49255759229692

  outer SCF iter =    1 RMS gradient =   0.99E-06 energy =       -146.4925575923
  outer SCF loop converged in   1 iterations or    9 steps

  Decoupling Energy:                                               0.0283365289
  Recoupling Energy:                                              -0.0186023489

 ENERGY| Total FORCE_EVAL ( QMMM ) energy [a.u.]:           -154.709329666537656

 MD| ***************************************************************************
 MD| Step number                                                               1
 MD| Time [fs]                                                          1.000000
 MD| Conserved quantity [hartree]                            -0.123704268794E+03
 MD| ---------------------------------------------------------------------------
 MD|                                          Instantaneous             Averages
 MD| CPU time per MD step [s]                    136.244743           136.244743
 MD| Energy drift per atom [K]          -0.380931584567E+03   0.000000000000E+00
 MD| Potential energy [hartree]         -0.154709329667E+03  -0.154709329667E+03
 MD| Total kinetic energy [hartree]      0.310050608728E+02   0.310050608728E+02
 MD| QM kinetic energy [hartree]         0.223345352605E+00   0.223345352605E+00
 MD| Total temperature [K]                       908.430729           908.430729
 MD| QM temperature [K]                         1382.878433          1382.878433
 MD| ***************************************************************************

  Translating the system in order to center the QM fragment in the QM box.

 Number of electrons:                                                         94
 Number of occupied orbitals:                                                 47
 Number of molecular orbitals:                                                47

 Number of orbital functions:                                                332
 Number of independent orbital functions:                                    332

 Extrapolation method: ASPC


 SCF WAVEFUNCTION OPTIMIZATION

  ----------------------------------- OT ---------------------------------------
  Minimizer      : DIIS                : direct inversion
                                         in the iterative subspace
                                         using   7 DIIS vectors
                                         safer DIIS on
  Preconditioner : FULL_ALL            : diagonalization, state selective
  Precond_solver : DEFAULT
  stepsize       :    0.15000000                  energy_gap     :    0.08000000
  eps_taylor     :   0.10000E-15                  max_taylor     :             4
  ----------------------------------- OT ---------------------------------------

  Step     Update method      Time    Convergence         Total energy    Change
  ------------------------------------------------------------------------------
  Decoupling Energy:                                               0.0283178845
  Recoupling Energy:                                              -0.0185955958

 *** WARNING in hfx_energy_potential.F:592 :: The Kohn Sham matrix is not  ***
 *** 100% occupied. This may result in incorrect Hartree-Fock results. Try ***
 *** to decrease EPS_PGF_ORB and EPS_FILTER_MATRIX in the QS section. For  ***
 *** more information see FAQ: https://www.cp2k.org/faq:hfx_eps_warning    ***

     1 OT DIIS     0.15E+00    7.2     0.00187895      -146.0906331479 -1.46E+02
  Decoupling Energy:                                               0.0283230982
  Recoupling Energy:                                              -0.0185968812
     2 OT DIIS     0.15E+00    5.3     0.00073316      -146.0960622462 -5.43E-03
  Decoupling Energy:                                               0.0283187899
  Recoupling Energy:                                              -0.0185958408
     3 OT DIIS     0.15E+00    5.3     0.00026714      -146.0970258816 -9.64E-04
  Decoupling Energy:                                               0.0283214092
  Recoupling Energy:                                              -0.0185958906
     4 OT DIIS     0.15E+00    5.3     0.00012005      -146.0971141716 -8.83E-05
  Decoupling Energy:                                               0.0283199774
  Recoupling Energy:                                              -0.0185957220
     5 OT DIIS     0.15E+00    5.3     0.00003253      -146.0971247610 -1.06E-05
  Decoupling Energy:                                               0.0283203037
  Recoupling Energy:                                              -0.0185958241
     6 OT DIIS     0.15E+00    5.3     0.00001172      -146.0971259533 -1.19E-06
  Decoupling Energy:                                               0.0283202491
  Recoupling Energy:                                              -0.0185957501
     7 OT DIIS     0.15E+00    5.3     0.00000432      -146.0971260723 -1.19E-07
  Decoupling Energy:                                               0.0283202296
  Recoupling Energy:                                              -0.0185957717
     8 OT DIIS     0.15E+00    5.3     0.00000194      -146.0971260915 -1.92E-08
  Decoupling Energy:                                               0.0283202434
  Recoupling Energy:                                              -0.0185957649
     9 OT DIIS     0.15E+00    5.3     0.00000068      -146.0971260946 -3.16E-09

  *** SCF run converged in     9 steps ***


  Electronic density on regular grids:        -93.9999880614        0.0000119386
  Core density on regular grids:               94.9999999999       -0.0000000001
  Total charge density on r-space grids:        1.0000119386
  Total charge density g-space grids:           1.0000119386

  Overlap energy of the core charge distribution:               0.00018038921404
  Self energy of the core charge distribution:               -359.57183942644110
  Core Hamiltonian energy:                                    111.01048006970309
  Hartree energy:                                             145.43424847700786
  Exchange-correlation energy:                                -35.18660952639937
  Hartree-Fock Exchange energy:                                -7.85986497329225
  QM/MM Electrostatic energy:                                   0.07627889557202

  Total energy:                                              -146.09712609463571

  outer SCF iter =    1 RMS gradient =   0.68E-06 energy =       -146.0971260946
  outer SCF loop converged in   1 iterations or    9 steps

  Decoupling Energy:                                               0.0283202385
  Recoupling Energy:                                              -0.0185957661

 ENERGY| Total FORCE_EVAL ( QMMM ) energy [a.u.]:           -147.708745856482750

 MD| ***************************************************************************
 MD| Step number                                                               2
 MD| Time [fs]                                                          2.000000
 MD| Conserved quantity [hartree]                            -0.119951807277E+03
 MD| ---------------------------------------------------------------------------
 MD|                                          Instantaneous             Averages
 MD| CPU time per MD step [s]                     87.392916           111.818829
 MD| Energy drift per atom [K]          -0.216037037623E+03  -0.108018518811E+03
 MD| Potential energy [hartree]         -0.147708745856E+03  -0.151209037762E+03
 MD| Total kinetic energy [hartree]      0.277569385799E+02   0.293809997264E+02
 MD| QM kinetic energy [hartree]         0.278596254827E+00   0.250970803716E+00
 MD| Total temperature [K]                       813.262585           860.846657
 MD| QM temperature [K]                         1724.973221          1553.925827
 MD| ***************************************************************************

  Translating the system in order to center the QM fragment in the QM box.

 Number of electrons:                                                         94
 Number of occupied orbitals:                                                 47
 Number of molecular orbitals:                                                47

 Number of orbital functions:                                                332
 Number of independent orbital functions:                                    332

 Extrapolation method: ASPC


 SCF WAVEFUNCTION OPTIMIZATION

  ----------------------------------- OT ---------------------------------------
  Minimizer      : DIIS                : direct inversion
                                         in the iterative subspace
                                         using   7 DIIS vectors
                                         safer DIIS on
  Preconditioner : FULL_ALL            : diagonalization, state selective
  Precond_solver : DEFAULT
  stepsize       :    0.15000000                  energy_gap     :    0.08000000
  eps_taylor     :   0.10000E-15                  max_taylor     :             4
  ----------------------------------- OT ---------------------------------------

  Step     Update method      Time    Convergence         Total energy    Change
  ------------------------------------------------------------------------------
  Decoupling Energy:                                               0.0282926218
  Recoupling Energy:                                              -0.0185861429

 *** WARNING in hfx_energy_potential.F:592 :: The Kohn Sham matrix is not  ***
 *** 100% occupied. This may result in incorrect Hartree-Fock results. Try ***
 *** to decrease EPS_PGF_ORB and EPS_FILTER_MATRIX in the QS section. For  ***
 *** more information see FAQ: https://www.cp2k.org/faq:hfx_eps_warning    ***

     1 OT DIIS     0.15E+00    7.2     0.00311623      -145.7602058690 -1.46E+02
  Decoupling Energy:                                               0.0283071969
  Recoupling Energy:                                              -0.0185887320
     2 OT DIIS     0.15E+00    5.3     0.00115483      -145.7748427492 -1.46E-02
  Decoupling Energy:                                               0.0282986175
  Recoupling Energy:                                              -0.0185884145
     3 OT DIIS     0.15E+00    5.3     0.00047227      -145.7770878335 -2.25E-03
  Decoupling Energy:                                               0.0283055327
  Recoupling Energy:                                              -0.0185889969
     4 OT DIIS     0.15E+00    5.3     0.00020496      -145.7773209628 -2.33E-04
  Decoupling Energy:                                               0.0283024459
  Recoupling Energy:                                              -0.0185885710
     5 OT DIIS     0.15E+00    5.3     0.00005117      -145.7773534174 -3.25E-05
  Decoupling Energy:                                               0.0283028742
  Recoupling Energy:                                              -0.0185886279
     6 OT DIIS     0.15E+00    5.3     0.00001691      -145.7773563190 -2.90E-06
  Decoupling Energy:                                               0.0283028461
  Recoupling Energy:                                              -0.0185885644
     7 OT DIIS     0.15E+00    5.3     0.00000704      -145.7773565826 -2.64E-07
  Decoupling Energy:                                               0.0283028614
  Recoupling Energy:                                              -0.0185885992
     8 OT DIIS     0.15E+00    5.3     0.00000314      -145.7773566338 -5.12E-08
  Decoupling Energy:                                               0.0283028639
  Recoupling Energy:                                              -0.0185885829
     9 OT DIIS     0.15E+00    5.3     0.00000105      -145.7773566414 -7.64E-09
  Decoupling Energy:                                               0.0283028605
  Recoupling Energy:                                              -0.0185885872
    10 OT DIIS     0.15E+00    5.3     0.00000025      -145.7773566427 -1.31E-09

  *** SCF run converged in    10 steps ***


  Electronic density on regular grids:        -94.0000514264       -0.0000514264
  Core density on regular grids:               94.9999999999       -0.0000000001
  Total charge density on r-space grids:        0.9999485735
  Total charge density g-space grids:           0.9999485735

  Overlap energy of the core charge distribution:               0.00001383812478
  Self energy of the core charge distribution:               -359.57183942644110
  Core Hamiltonian energy:                                    110.90961267696156
  Hartree energy:                                             145.46428508666349
  Exchange-correlation energy:                                -35.16778652519771
  Hartree-Fock Exchange energy:                                -7.85418470124186
  QM/MM Electrostatic energy:                                   0.44254240840506

  Total energy:                                              -145.77735664272575

  outer SCF iter =    1 RMS gradient =   0.25E-06 energy =       -145.7773566427
  outer SCF loop converged in   1 iterations or   10 steps

  Decoupling Energy:                                               0.0283028604
  Recoupling Energy:                                              -0.0185885863

 ENERGY| Total FORCE_EVAL ( QMMM ) energy [a.u.]:           -142.851634359816927

 MD| ***************************************************************************
 MD| Step number                                                               3
 MD| Time [fs]                                                          3.000000
 MD| Conserved quantity [hartree]                            -0.117148613481E+03
 MD| ---------------------------------------------------------------------------
 MD|                                          Instantaneous             Averages
 MD| CPU time per MD step [s]                     92.746527           105.461395
 MD| Energy drift per atom [K]          -0.928561951612E+02  -0.102964410928E+03
 MD| Potential energy [hartree]         -0.142851634360E+03  -0.148423236628E+03
 MD| Total kinetic energy [hartree]      0.257030208792E+02   0.281550067773E+02
 MD| QM kinetic energy [hartree]         0.353616419970E+00   0.285186009134E+00
 MD| Total temperature [K]                       753.083959           824.925758
 MD| QM temperature [K]                         2189.472559          1765.774738
 MD| ***************************************************************************

  Translating the system in order to center the QM fragment in the QM box.

 Number of electrons:                                                         94
 Number of occupied orbitals:                                                 47
 Number of molecular orbitals:                                                47

 Number of orbital functions:                                                332
 Number of independent orbital functions:                                    332

 Extrapolation method: ASPC


 SCF WAVEFUNCTION OPTIMIZATION

  ----------------------------------- OT ---------------------------------------
  Minimizer      : DIIS                : direct inversion
                                         in the iterative subspace
                                         using   7 DIIS vectors
                                         safer DIIS on
  Preconditioner : FULL_ALL            : diagonalization, state selective
  Precond_solver : DEFAULT
  stepsize       :    0.15000000                  energy_gap     :    0.08000000
  eps_taylor     :   0.10000E-15                  max_taylor     :             4
  ----------------------------------- OT ---------------------------------------

  Step     Update method      Time    Convergence         Total energy    Change
  ------------------------------------------------------------------------------
  Decoupling Energy:                                               0.0282874590
  Recoupling Energy:                                              -0.0185834684

 *** WARNING in hfx_energy_potential.F:592 :: The Kohn Sham matrix is not  ***
 *** 100% occupied. This may result in incorrect Hartree-Fock results. Try ***
 *** to decrease EPS_PGF_ORB and EPS_FILTER_MATRIX in the QS section. For  ***
 *** more information see FAQ: https://www.cp2k.org/faq:hfx_eps_warning    ***

     1 OT DIIS     0.15E+00    7.2     0.00287916      -145.4481334077 -1.45E+02
  Decoupling Energy:                                               0.0282861837
  Recoupling Energy:                                              -0.0185859619
     2 OT DIIS     0.15E+00    5.3     0.00113112      -145.4612480743 -1.31E-02
  Decoupling Energy:                                               0.0282869372
  Recoupling Energy:                                              -0.0185834160
     3 OT DIIS     0.15E+00    5.3     0.00040523      -145.4635805751 -2.33E-03
  Decoupling Energy:                                               0.0282870447
  Recoupling Energy:                                              -0.0185861234
     4 OT DIIS     0.15E+00    5.3     0.00016815      -145.4637117063 -1.31E-04
  Decoupling Energy:                                               0.0282867480
  Recoupling Energy:                                              -0.0185852215
     5 OT DIIS     0.15E+00    5.3     0.00003931      -145.4637309146 -1.92E-05
  Decoupling Energy:                                               0.0282870412
  Recoupling Energy:                                              -0.0185854308
     6 OT DIIS     0.15E+00    5.3     0.00001405      -145.4637324945 -1.58E-06
  Decoupling Energy:                                               0.0282868685
  Recoupling Energy:                                              -0.0185854067
     7 OT DIIS     0.15E+00    5.3     0.00000564      -145.4637326803 -1.86E-07
  Decoupling Energy:                                               0.0282869013
  Recoupling Energy:                                              -0.0185854019
     8 OT DIIS     0.15E+00    5.3     0.00000197      -145.4637327173 -3.71E-08
  Decoupling Energy:                                               0.0282868889
  Recoupling Energy:                                              -0.0185854038
     9 OT DIIS     0.15E+00    5.3     0.00000076      -145.4637327208 -3.50E-09

  *** SCF run converged in     9 steps ***


  Electronic density on regular grids:        -94.0000182418       -0.0000182418
  Core density on regular grids:               94.9999999999       -0.0000000001
  Total charge density on r-space grids:        0.9999817582
  Total charge density g-space grids:           0.9999817582

  Overlap energy of the core charge distribution:               0.00001232484358
  Self energy of the core charge distribution:               -359.57183942644110
  Core Hamiltonian energy:                                    110.82637364041086
  Hartree energy:                                             145.52875036100210
  Exchange-correlation energy:                                -35.13939590302143
  Hartree-Fock Exchange energy:                                -7.84532051852618
  QM/MM Electrostatic energy:                                   0.73768680091633

  Total energy:                                              -145.46373272081590

  outer SCF iter =    1 RMS gradient =   0.76E-06 energy =       -145.4637327208
  outer SCF loop converged in   1 iterations or    9 steps

  Decoupling Energy:                                               0.0282868975
  Recoupling Energy:                                              -0.0185854043

 ENERGY| Total FORCE_EVAL ( QMMM ) energy [a.u.]:           -170.763827496413171

 MD| ***************************************************************************
 MD| Step number                                                               4
 MD| Time [fs]                                                          4.000000
 MD| Conserved quantity [hartree]                            -0.125034989249E+03
 MD| ---------------------------------------------------------------------------
 MD|                                          Instantaneous             Averages
 MD| CPU time per MD step [s]                     88.260957           101.161285
 MD| Energy drift per atom [K]          -0.439407479803E+03  -0.187075178147E+03
 MD| Potential energy [hartree]         -0.170763827496E+03  -0.154008384345E+03
 MD| Total kinetic energy [hartree]      0.457288382476E+02   0.325484646449E+02
 MD| QM kinetic energy [hartree]         0.372100696306E+00   0.306914680927E+00
 MD| Total temperature [K]                      1339.829070           953.651586
 MD| QM temperature [K]                         2303.920909          1900.311281
 MD| ***************************************************************************

  Translating the system in order to center the QM fragment in the QM box.

 Number of electrons:                                                         94
 Number of occupied orbitals:                                                 47
 Number of molecular orbitals:                                                47

 Number of orbital functions:                                                332
 Number of independent orbital functions:                                    332

 Extrapolation method: ASPC


 SCF WAVEFUNCTION OPTIMIZATION

  ----------------------------------- OT ---------------------------------------
  Minimizer      : DIIS                : direct inversion
                                         in the iterative subspace
                                         using   7 DIIS vectors
                                         safer DIIS on
  Preconditioner : FULL_ALL            : diagonalization, state selective
  Precond_solver : DEFAULT
  stepsize       :    0.15000000                  energy_gap     :    0.08000000
  eps_taylor     :   0.10000E-15                  max_taylor     :             4
  ----------------------------------- OT ---------------------------------------

  Step     Update method      Time    Convergence         Total energy    Change
  ------------------------------------------------------------------------------
  Decoupling Energy:                                               0.0282788120
  Recoupling Energy:                                              -0.0185851027

 *** WARNING in hfx_energy_potential.F:592 :: The Kohn Sham matrix is not  ***
 *** 100% occupied. This may result in incorrect Hartree-Fock results. Try ***
 *** to decrease EPS_PGF_ORB and EPS_FILTER_MATRIX in the QS section. For  ***
 *** more information see FAQ: https://www.cp2k.org/faq:hfx_eps_warning    ***

     1 OT DIIS     0.15E+00    7.2     0.00178505      -145.1177796804 -1.45E+02
  Decoupling Energy:                                               0.0282660165
  Recoupling Energy:                                              -0.0185789959
     2 OT DIIS     0.15E+00    5.3     0.00077806      -145.1228048659 -5.03E-03
  Decoupling Energy:                                               0.0282765379
  Recoupling Energy:                                              -0.0185847885
     3 OT DIIS     0.15E+00    5.3     0.00056526      -145.1236580534 -8.53E-04
  Decoupling Energy:                                               0.0282701704
  Recoupling Energy:                                              -0.0185812489
     4 OT DIIS     0.15E+00    5.3     0.00008093      -145.1238732803 -2.15E-04
  Decoupling Energy:                                               0.0282698834
  Recoupling Energy:                                              -0.0185814167
     5 OT DIIS     0.15E+00    5.3     0.00002387      -145.1238785655 -5.29E-06
  Decoupling Energy:                                               0.0282700787
  Recoupling Energy:                                              -0.0185814153
     6 OT DIIS     0.15E+00    5.3     0.00001026      -145.1238791511 -5.86E-07
  Decoupling Energy:                                               0.0282700325
  Recoupling Energy:                                              -0.0185814249
     7 OT DIIS     0.15E+00    5.3     0.00000268      -145.1238792620 -1.11E-07
  Decoupling Energy:                                               0.0282700482
  Recoupling Energy:                                              -0.0185814350
     8 OT DIIS     0.15E+00    5.3     0.00000096      -145.1238792718 -9.71E-09

  *** SCF run converged in     8 steps ***


  Electronic density on regular grids:        -94.0000121869       -0.0000121869
  Core density on regular grids:               94.9999999999       -0.0000000001
  Total charge density on r-space grids:        0.9999878130
  Total charge density g-space grids:           0.9999878130

  Overlap energy of the core charge distribution:               0.00001160791069
  Self energy of the core charge distribution:               -359.57183942644110
  Core Hamiltonian energy:                                    110.75386742543905
  Hartree energy:                                             145.60013481494025
  Exchange-correlation energy:                                -35.10793802928549
  Hartree-Fock Exchange energy:                                -7.83496081736024
  QM/MM Electrostatic energy:                                   1.03684515304283

  Total energy:                                              -145.12387927175402

  outer SCF iter =    1 RMS gradient =   0.96E-06 energy =       -145.1238792718
  outer SCF loop converged in   1 iterations or    8 steps

  Decoupling Energy:                                               0.0282700460
  Recoupling Energy:                                              -0.0185814297

 ENERGY| Total FORCE_EVAL ( QMMM ) energy [a.u.]:           -144.452941330274342

 MD| ***************************************************************************
 MD| Step number                                                               5
 MD| Time [fs]                                                          5.000000
 MD| Conserved quantity [hartree]                            -0.116721645867E+03
 MD| ---------------------------------------------------------------------------
 MD|                                          Instantaneous             Averages
 MD| CPU time per MD step [s]                     82.399831            97.408995
 MD| Energy drift per atom [K]          -0.740939424845E+02  -0.164478931014E+03
 MD| Potential energy [hartree]         -0.144452941330E+03  -0.152097295742E+03
 MD| Total kinetic energy [hartree]      0.277312954629E+02   0.315850308085E+02
 MD| QM kinetic energy [hartree]         0.356972191995E+00   0.316926183141E+00
 MD| Total temperature [K]                       812.511256           925.423520
 MD| QM temperature [K]                         2210.250358          1962.299096
 MD| ***************************************************************************

  Translating the system in order to center the QM fragment in the QM box.

 Number of electrons:                                                         94
 Number of occupied orbitals:                                                 47
 Number of molecular orbitals:                                                47

 Number of orbital functions:                                                332
 Number of independent orbital functions:                                    332

 Extrapolation method: ASPC


 SCF WAVEFUNCTION OPTIMIZATION

  ----------------------------------- OT ---------------------------------------
  Minimizer      : DIIS                : direct inversion
                                         in the iterative subspace
                                         using   7 DIIS vectors
                                         safer DIIS on
  Preconditioner : FULL_ALL            : diagonalization, state selective
  Precond_solver : DEFAULT
  stepsize       :    0.15000000                  energy_gap     :    0.08000000
  eps_taylor     :   0.10000E-15                  max_taylor     :             4
  ----------------------------------- OT ---------------------------------------

  Step     Update method      Time    Convergence         Total energy    Change
  ------------------------------------------------------------------------------
  Decoupling Energy:                                               0.0282614496
  Recoupling Energy:                                              -0.0185788725

 *** WARNING in hfx_energy_potential.F:592 :: The Kohn Sham matrix is not  ***
 *** 100% occupied. This may result in incorrect Hartree-Fock results. Try ***
 *** to decrease EPS_PGF_ORB and EPS_FILTER_MATRIX in the QS section. For  ***
 *** more information see FAQ: https://www.cp2k.org/faq:hfx_eps_warning    ***

     1 OT DIIS     0.15E+00    7.2     0.00071991      -144.6502762480 -1.45E+02
  Decoupling Energy:                                               0.0282580450
  Recoupling Energy:                                              -0.0185780118
     2 OT DIIS     0.15E+00    5.3     0.00029741      -144.6510919590 -8.16E-04
  Decoupling Energy:                                               0.0282618118
  Recoupling Energy:                                              -0.0185791240
     3 OT DIIS     0.15E+00    5.3     0.00015491      -144.6512351508 -1.43E-04
  Decoupling Energy:                                               0.0282591196
  Recoupling Energy:                                              -0.0185782432
     4 OT DIIS     0.15E+00    5.3     0.00003691      -144.6512536124 -1.85E-05
  Decoupling Energy:                                               0.0282595261
  Recoupling Energy:                                              -0.0185784364
     5 OT DIIS     0.15E+00    5.3     0.00000936      -144.6512545224 -9.10E-07
  Decoupling Energy:                                               0.0282595387
  Recoupling Energy:                                              -0.0185784084
     6 OT DIIS     0.15E+00    5.3     0.00000481      -144.6512546030 -8.06E-08
  Decoupling Energy:                                               0.0282595480
  Recoupling Energy:                                              -0.0185784261
     7 OT DIIS     0.15E+00    5.3     0.00000141      -144.6512546225 -1.94E-08
  Decoupling Energy:                                               0.0282595413
  Recoupling Energy:                                              -0.0185784223
     8 OT DIIS     0.15E+00    5.3     0.00000056      -144.6512546252 -2.77E-09

  *** SCF run converged in     8 steps ***


  Electronic density on regular grids:        -93.9999787461        0.0000212539
  Core density on regular grids:               94.9999999999       -0.0000000001
  Total charge density on r-space grids:        1.0000212538
  Total charge density g-space grids:           1.0000212538

  Overlap energy of the core charge distribution:               0.00000896923936
  Self energy of the core charge distribution:               -359.57183942644110
  Core Hamiltonian energy:                                    110.65800224158944
  Hartree energy:                                             145.68413113860748
  Exchange-correlation energy:                                -35.07087864110466
  Hartree-Fock Exchange energy:                                -7.82310091630086
  QM/MM Electrostatic energy:                                   1.47242200919030

  Total energy:                                              -144.65125462522002

  outer SCF iter =    1 RMS gradient =   0.56E-06 energy =       -144.6512546252
  outer SCF loop converged in   1 iterations or    8 steps

  Decoupling Energy:                                               0.0282595454
  Recoupling Energy:                                              -0.0185784234

 ENERGY| Total FORCE_EVAL ( QMMM ) energy [a.u.]:           -156.215669564660089

 MD| ***************************************************************************
 MD| Step number                                                               6
 MD| Time [fs]                                                          6.000000
 MD| Conserved quantity [hartree]                            -0.120486438524E+03
 MD| ---------------------------------------------------------------------------
 MD|                                          Instantaneous             Averages
 MD| CPU time per MD step [s]                     82.228264            94.878873
 MD| Energy drift per atom [K]          -0.239530357130E+03  -0.176987502033E+03
 MD| Potential energy [hartree]         -0.156215669565E+03  -0.152783691379E+03
 MD| Total kinetic energy [hartree]      0.357292310405E+02   0.322757308472E+02
 MD| QM kinetic energy [hartree]         0.332174121628E+00   0.319467506222E+00
 MD| Total temperature [K]                      1046.846240           945.660640
 MD| QM temperature [K]                         2056.709143          1978.034104
 MD| ***************************************************************************

 -------------------------------------------------------------------------------
 -                                                                             -
 -                                DBCSR STATISTICS                             -
 -                                                                             -
 -------------------------------------------------------------------------------
 COUNTER                                    TOTAL       BLAS       SMM       ACC
 flops     5 x    15 x    15               252000     100.0%      0.0%      0.0%
 flops    14 x    15 x    15               793800     100.0%      0.0%      0.0%
 flops     5 x    32 x    32              1146880     100.0%      0.0%      0.0%
 flops    19 x    15 x    15              2308500     100.0%      0.0%      0.0%
 flops    15 x    15 x    15              3550500     100.0%      0.0%      0.0%
 flops    14 x    32 x    32              3612672     100.0%      0.0%      0.0%
 flops    33 x    15 x    15              4009500     100.0%      0.0%      0.0%
 flops    19 x    32 x    15              4924800     100.0%      0.0%      0.0%
 flops    19 x    15 x    32              4924800     100.0%      0.0%      0.0%
 flops    43 x    15 x    15              5224500     100.0%      0.0%      0.0%
 flops    47 x    15 x    15              5710500     100.0%      0.0%      0.0%
 flops    24 x    15 x    15              5832000     100.0%      0.0%      0.0%
 flops     5 x     5 x    15              6785250     100.0%      0.0%      0.0%
 flops    15 x    15 x    32              7574400     100.0%      0.0%      0.0%
 flops    15 x    32 x    15              7574400     100.0%      0.0%      0.0%
 flops    32 x    15 x    15              7574400     100.0%      0.0%      0.0%
 flops    33 x    32 x    15              8553600     100.0%      0.0%      0.0%
 flops    33 x    15 x    32              8553600     100.0%      0.0%      0.0%
 flops    71 x    15 x    15              8626500     100.0%      0.0%      0.0%
 flops    19 x    32 x    32             10506240     100.0%      0.0%      0.0%
 flops    19 x    15 x    76             10570080     100.0%      0.0%      0.0%
 flops    43 x    32 x    15             11145600     100.0%      0.0%      0.0%
 flops    43 x    15 x    32             11145600     100.0%      0.0%      0.0%
 flops    47 x    15 x    32             12182400     100.0%      0.0%      0.0%
 flops    47 x    32 x    15             12182400     100.0%      0.0%      0.0%
 flops    24 x    15 x    32             12441600     100.0%      0.0%      0.0%
 flops    24 x    32 x    15             12441600     100.0%      0.0%      0.0%
 flops    19 x    15 x    90             12517200     100.0%      0.0%      0.0%
 flops     5 x     5 x    32             14475200     100.0%      0.0%      0.0%
 flops    15 x    15 x    76             15253200     100.0%      0.0%      0.0%
 flops    32 x    32 x    15             16158720     100.0%      0.0%      0.0%
 flops    15 x    32 x    32             16158720     100.0%      0.0%      0.0%
 flops    32 x    15 x    32             16158720     100.0%      0.0%      0.0%
 flops    15 x    15 x    90             18063000     100.0%      0.0%      0.0%
 flops    33 x    32 x    32             18247680     100.0%      0.0%      0.0%
 flops    33 x    15 x    76             18358560     100.0%      0.0%      0.0%
 flops    71 x    15 x    32             18403200     100.0%      0.0%      0.0%
 flops    71 x    32 x    15             18403200     100.0%      0.0%      0.0%
 flops     5 x    14 x    15             20420400     100.0%      0.0%      0.0%
 flops    14 x     5 x    15             20420400     100.0%      0.0%      0.0%
 flops    33 x    15 x    90             21740400     100.0%      0.0%      0.0%
 flops    19 x    32 x    76             22549504     100.0%      0.0%      0.0%
 flops    43 x    32 x    32             23777280     100.0%      0.0%      0.0%
 flops    43 x    15 x    76             23921760     100.0%      0.0%      0.0%
 flops    47 x    32 x    32             25989120     100.0%      0.0%      0.0%
 flops    47 x    15 x    76             26147040     100.0%      0.0%      0.0%
 flops    24 x    32 x    32             26542080     100.0%      0.0%      0.0%
 flops    19 x    32 x    90             26703360     100.0%      0.0%      0.0%
 flops    24 x    15 x    76             26703360     100.0%      0.0%      0.0%
 flops    43 x    15 x    90             28328400     100.0%      0.0%      0.0%
 flops    47 x    15 x    90             30963600     100.0%      0.0%      0.0%
 flops    24 x    15 x    90             31622400     100.0%      0.0%      0.0%
 flops     5 x    15 x     5             32082000     100.0%      0.0%      0.0%
 flops    15 x    32 x    76             32540160     100.0%      0.0%      0.0%
 flops    32 x    15 x    76             32540160     100.0%      0.0%      0.0%
 flops    32 x    32 x    32             34471936     100.0%      0.0%      0.0%
 flops    15 x    32 x    90             38534400     100.0%      0.0%      0.0%
 flops    32 x    15 x    90             38534400     100.0%      0.0%      0.0%
 flops    33 x    32 x    76             39164928     100.0%      0.0%      0.0%
 flops    71 x    32 x    32             39260160     100.0%      0.0%      0.0%
 flops    71 x    15 x    76             39498720     100.0%      0.0%      0.0%
 flops     5 x    14 x    32             43563520     100.0%      0.0%      0.0%
 flops    14 x     5 x    32             43563520     100.0%      0.0%      0.0%
 flops    33 x    32 x    90             46379520     100.0%      0.0%      0.0%
 flops    71 x    15 x    90             46774800     100.0%      0.0%      0.0%
 flops    43 x    32 x    76             51033088     100.0%      0.0%      0.0%
 flops    47 x    32 x    76             55780352     100.0%      0.0%      0.0%
 flops    24 x    32 x    76             56967168     100.0%      0.0%      0.0%
 flops    43 x    32 x    90             60433920     100.0%      0.0%      0.0%
 flops    47 x    32 x    90             66055680     100.0%      0.0%      0.0%
 flops    24 x    32 x    90             67461120     100.0%      0.0%      0.0%
 flops    14 x    14 x    15             68372640     100.0%      0.0%      0.0%
 flops     5 x    32 x     5             68441600     100.0%      0.0%      0.0%
 flops    32 x    32 x    76             69419008     100.0%      0.0%      0.0%
 flops    32 x    32 x    90             82206720     100.0%      0.0%      0.0%
 flops    71 x    32 x    76             84263936     100.0%      0.0%      0.0%
 flops    71 x    32 x    90             99786240     100.0%      0.0%      0.0%
 flops     5 x    15 x    14            102702600     100.0%      0.0%      0.0%
 flops    14 x    15 x     5            102702600     100.0%      0.0%      0.0%
 flops    14 x    14 x    32            145861632     100.0%      0.0%      0.0%
 flops     5 x    32 x    14            219098880     100.0%      0.0%      0.0%
 flops    14 x    32 x     5            219098880     100.0%      0.0%      0.0%
 flops    14 x    15 x    14            325775520     100.0%      0.0%      0.0%
 flops    14 x    32 x    14            694987776     100.0%      0.0%      0.0%
 flops inhomo. stacks                   408448800     100.0%      0.0%      0.0%
 flops total                         4.283981E+09     100.0%      0.0%      0.0%
 flops max/rank                      1.447577E+09     100.0%      0.0%      0.0%
 matmuls inhomo. stacks                      2056     100.0%      0.0%      0.0%
 matmuls total                             496930     100.0%      0.0%      0.0%
 number of processed stacks                 85114     100.0%      0.0%      0.0%
 average stack size                                     5.8       0.0       0.0
 marketing flops                     4.593239E+09
 -------------------------------------------------------------------------------
 # multiplications                           1394
 max memory usage/rank               4.054139E+09
 # max total images/rank                        2
 # max 3D layers                                1
 # MPI messages exchanged                   55760
 MPI messages size (bytes):
  total size                         1.100985E+09
  min size                           0.000000E+00
  max size                         119.520000E+03
  average size                      19.745068E+03
 MPI breakdown and total messages size (bytes):
             size <=      128               25054                        0
       128 < size <=     8192                9510                 42023272
      8192 < size <=    32768               12094                197648896
     32768 < size <=   131072                9102                861312768
    131072 < size <=  4194304                   0                        0
   4194304 < size <= 16777216                   0                        0
  16777216 < size                               0                        0
 -------------------------------------------------------------------------------

 *** WARNING in dbcsr_mm.F:294 :: Using a non-square number of MPI ranks ***
 *** might lead to poor performance. Used ranks: 8 Suggested: 9 16       ***

 -------------------------------------------------------------------------------
 -                                                                             -
 -                      DBCSR MESSAGE PASSING PERFORMANCE                      -
 -                                                                             -
 -------------------------------------------------------------------------------
 ROUTINE             CALLS      AVE VOLUME [Bytes]
 MP_Bcast               85                     12.
 MP_Allreduce         7453                      8.
 MP_Alltoall          5532                   7097.
 MP_ISend            20656                   9473.
 MP_IRecv            20210                   8170.
 -------------------------------------------------------------------------------

 -------------------------------------------------------------------------------
 -                                                                             -
 -                                GRID STATISTICS                              -
 -                                                                             -
 -------------------------------------------------------------------------------
 LP    KERNEL             BACKEND                              COUNT     PERCENT
 1     collocate ortho    REF                                 364270      21.46%
 1     integrate ortho    REF                                 344707      20.31%
 2     integrate ortho    REF                                 236766      13.95%
 2     collocate ortho    REF                                 220240      12.97%
 0     collocate ortho    REF                                 193885      11.42%
 0     integrate ortho    REF                                 171641      10.11%
 3     integrate ortho    REF                                  79768       4.70%
 3     collocate ortho    REF                                  61551       3.63%
 4     integrate ortho    REF                                  13156       0.78%
 4     collocate ortho    REF                                   6881       0.41%
 0     collocate general  REF                                   1904       0.11%
 1     integrate general  REF                                   1904       0.11%
 5     integrate ortho    REF                                    789       0.05%
 -------------------------------------------------------------------------------

 MEMORY| Estimated peak process memory [MiB]                                3867

 -------------------------------------------------------------------------------
 -                                                                             -
 -                         MESSAGE PASSING PERFORMANCE                         -
 -                                                                             -
 -------------------------------------------------------------------------------

 ROUTINE             CALLS      AVE VOLUME [Bytes]
 MP_Group                8
 MP_Bcast              733                4346037.
 MP_Allreduce         2325                2336907.
 MP_Sync               420
 MP_Alltoall          1306              192858027.
 MP_ISendRecv         2807                 277321.
 MP_Wait              6072
 MP_comm_split          14
 MP_ISend             2407                5828709.
 MP_IRecv             2400                5842806.
 MP_Recv                21                  31872.
 -------------------------------------------------------------------------------


 -------------------------------------------------------------------------------
 -                                                                             -
 -                           R E F E R E N C E S                               -
 -                                                                             -
 -------------------------------------------------------------------------------
 
 CP2K version 8.2, the CP2K developers group (2021).
 CP2K is freely available from https://www.cp2k.org/ .

 Kuehne,Thomas D.; Iannuzzi,Marcella; Del Ben,Mauro;
 Rybkin,Vladimir V.; Seewald,Patrick; Stein,Frederick; Laino,Teodoro;
 Khaliullin,Rustam Z.; Schuett,Ole; Schiffmann,Florian; Golze,Dorothea;
 Wilhelm,Jan; Chulkov,Sergey; Bani-Hashemian,Mohammad Hossein;
 Weber,Valery; Borstnik,Urban; Taillefumier,Mathieu;
 Jakobovits,Alice Shoshana; Lazzaro,Alfio; Pabst,Hans; Mueller,Tiziano;
 Schade,Robert; Guidon,Manuel; Andermatt,Samuel; Holmberg,Nico;
 Schenter,Gregory K.; Hehn,Anna; Bussy,Augustin; Belleflamme,Fabian;
 Tabacchi,Gloria; Gloess,Andreas; Lass,Michael; Bethune,Iain;
 Mundy,Christopher J.; Plessl,Christian; Watkins,Matt;
 VandeVondele,Joost; Krack,Matthias; Hutter,Juerg. 
 The Journal of Chemical Physics, 152 (19), (2020). 
 CP2K: An electronic structure and molecular dynamics software package -
 Quickstep: Efficient and accurate electronic structure calculations.
 https://doi.org/10.1063/5.0007045

 Schuett, Ole; Messmer, Peter; Hutter, Juerg; VandeVondele, Joost. 
 Electronic Structure Calculations on Graphics Processing Units, John
 Wiley & Sons, Ltd, 173-190 (2016). 
 GPU-Accelerated Sparse Matrix-Matrix Multiplication for
 Linear Scaling Density Functional Theory.
 https://doi.org/10.1002/9781118670712.ch8

 Borstnik, U; VandeVondele, J; Weber, V; Hutter, J. 
 PARALLEL COMPUTING, 40 (5-6), 47-58 (2014). 
 Sparse matrix multiplication: The distributed block-compressed sparse
 row library.
 https://doi.org/10.1016/j.parco.2014.03.012

 Hutter, J; Iannuzzi, M; Schiffmann, F; VandeVondele, J. 
 WIREs Comput Mol Sci., 4 (1), 15-25 (2014). 
 CP2K: atomistic simulations of condensed matter systems.
 https://doi.org/10.1002/wcms.1159

 Marek, A; Blum, V; Johanni, R; Havu, V; Lang, B; Auckenthaler, T;
 Heinecke, A; Bungartz, H; Lederer, H. 
 Journal of Physics: Condensed Matter, 26 (21), (2014). 
 The ELPA library: scalable parallel eigenvalue solutions for
 electronic structure
 theory and computational science.
 https://doi.org/10.1088/0953-8984/26/21/213201

 Guidon, M; Hutter, J; VandeVondele, J. 
 JOURNAL OF CHEMICAL THEORY AND COMPUTATION, 5 (11), 3010-3021 (2009). 
 Robust Periodic Hartree-Fock Exchange for Large-Scale Simulations Using
 Gaussian Basis Sets.
 https://doi.org/10.1021/ct900494g

 Guidon, M; Schiffmann, F; Hutter, J; VandeVondele, J. 
 JOURNAL OF CHEMICAL PHYSICS, 128 (21), 214104 (2008). 
 Ab initio molecular dynamics using hybrid density functionals.
 https://doi.org/10.1063/1.2931945

 Kuhne, TD; Krack, M; Mohamed, FR; Parrinello, M. 
 PHYSICAL REVIEW LETTERS, 98 (6), 066401 (2007). 
 Efficient and accurate Car-Parrinello-like approach to
 Born-Oppenheimer molecular dynamics.
 https://doi.org/10.1103/PhysRevLett.98.066401

 Laino, T; Mohamed, F; Laio, A; Parrinello, M. 
 JOURNAL OF CHEMICAL THEORY AND COMPUTATION, 2 (5), 1370-1378 (2006). 
 An efficient linear-scaling electrostatic coupling for treating
 periodic boundary conditions in QM/MM simulations.
 https://doi.org/10.1021/ct6001169

 Laino, T; Mohamed, F; Laio, A; Parrinello, M. 
 JOURNAL OF CHEMICAL THEORY AND COMPUTATION, 1 (6), 1176-1184 (2005). 
 An efficient real space multigrid QM/MM electrostatic coupling.
 https://doi.org/10.1021/ct050123f

 Krack, M. 
 THEORETICAL CHEMISTRY ACCOUNTS, 114 (1-3), 145-152 (2005). 
 Pseudopotentials for H to Kr optimized for gradient-corrected
 exchange-correlation functionals.
 https://doi.org/10.1007/s00214-005-0655-y

 VandeVondele, J; Krack, M; Mohamed, F; Parrinello, M; Chassaing, T;
 Hutter, J. COMPUTER PHYSICS COMMUNICATIONS, 167 (2), 103-128 (2005). 
 QUICKSTEP: Fast and accurate density functional calculations using a
 mixed Gaussian and plane waves approach.
 https://doi.org/10.1016/j.cpc.2004.12.014

 Frigo, M; Johnson, SG. 
 PROCEEDINGS OF THE IEEE, 93 (2), 216-231 (2005). 
 The design and implementation of FFTW3.
 https://doi.org/10.1109/JPROC.2004.840301

 Kolafa, J. 
 JOURNAL OF COMPUTATIONAL CHEMISTRY, 25 (3), 335-342 (2004). 
 Time-reversible always stable predictor-corrector method for molecular dynamics of polarizable molecules.
 https://doi.org/10.1002/jcc.10385

 VandeVondele, J; Hutter, J. 
 JOURNAL OF CHEMICAL PHYSICS, 118 (10), 4365-4369 (2003). 
 An efficient orbital transformation method for electronic structure
 calculations.
 https://doi.org/10.1063/1.1543154

 Hartwigsen, C; Goedecker, S; Hutter, J. 
 PHYSICAL REVIEW B, 58 (7), 3641-3662 (1998). 
 Relativistic separable dual-space Gaussian pseudopotentials from H to Rn.
 https://doi.org/10.1103/PhysRevB.58.3641

 Lippert, G; Hutter, J; Parrinello, M. 
 MOLECULAR PHYSICS, 92 (3), 477-487 (1997). 
 A hybrid Gaussian and plane wave density functional scheme.
 https://doi.org/10.1080/002689797170220

 Goedecker, S; Teter, M; Hutter, J. 
 PHYSICAL REVIEW B, 54 (3), 1703-1710 (1996). 
 Separable dual-space Gaussian pseudopotentials.
 https://doi.org/10.1103/PhysRevB.54.1703

 ESSMANN, U; PERERA, L; BERKOWITZ, ML; DARDEN, T; LEE, H; PEDERSEN, LG. 
 JOURNAL OF CHEMICAL PHYSICS, 103 (19), 8577-8593 (1995). 
 A SMOOTH PARTICLE MESH EWALD METHOD.
 https://doi.org/10.1063/1.470117

 BLOCHL, PE. 
 JOURNAL OF CHEMICAL PHYSICS, 103 (17), 7422-7428 (1995). 
 ELECTROSTATIC DECOUPLING OF PERIODIC IMAGES OF PLANE-WAVE-EXPANDED
 DENSITIES AND DERIVED ATOMIC POINT CHARGES.
 https://doi.org/10.1063/1.470314

 BECKE, AD. PHYSICAL REVIEW A, 38 (6), 3098-3100 (1988). 
 DENSITY-FUNCTIONAL EXCHANGE-ENERGY APPROXIMATION WITH CORRECT
 ASYMPTOTIC-BEHAVIOR.
 https://doi.org/10.1103/PhysRevA.38.3098

 LEE, CT; YANG, WT; PARR, RG. 
 PHYSICAL REVIEW B, 37 (2), 785-789 (1988). 
 DEVELOPMENT OF THE COLLE-SALVETTI CORRELATION-ENERGY FORMULA INTO A
 FUNCTIONAL OF THE ELECTRON-DENSITY.
 https://doi.org/10.1103/PhysRevB.37.785

 VOSKO, SH; WILK, L; NUSAIR, M. 
 CANADIAN JOURNAL OF PHYSICS, 58 (8), 1200-1211 (1980). 
 ACCURATE SPIN-DEPENDENT ELECTRON LIQUID CORRELATION ENERGIES FOR LOCAL
 SPIN-DENSITY CALCULATIONS - A CRITICAL ANALYSIS.
 https://doi.org/10.1139/p80-159


 -------------------------------------------------------------------------------
 -                                                                             -
 -                                T I M I N G                                  -
 -                                                                             -
 -------------------------------------------------------------------------------
 SUBROUTINE                       CALLS  ASD         SELF TIME        TOTAL TIME
                                MAXIMUM       AVERAGE  MAXIMUM  AVERAGE  MAXIMUM
 CP2K                                 1  1.0    0.031    0.035  571.444  571.444
 qs_mol_dyn_low                       1  2.0    0.003    0.003  569.320  569.388
 velocity_verlet                      6  3.0    0.002    0.002  521.134  521.158
 qs_forces                            7  3.9    0.001    0.001  382.098  382.098
 qs_energies                          7  4.9    0.000    0.000  322.553  322.554
 scf_env_do_scf                       7  5.9    0.000    0.001  310.440  310.440
 rebuild_ks_matrix                   61  8.6    0.000    0.000  309.076  309.078
 qs_ks_build_kohn_sham_matrix        61  9.6    0.010    0.011  309.076  309.078
 scf_env_do_scf_inner_loop           54  7.0    0.001    0.003  257.974  257.981
 qs_ks_update_qs_env                 61  8.0    0.001    0.001  249.576  249.578
 pw_transfer                       1297 12.1    0.137    0.142  218.805  222.802
 fft_wrap_pw1pw2                   1079 13.3    0.018    0.018  213.494  217.512
 fft_wrap_pw1pw2_200                685 14.5   28.294   28.909  209.172  212.789
 qs_vxc_create                       61 10.6    0.001    0.001  174.677  174.682
 xc_vxc_pw_create                    61 11.6    3.927    4.646  174.676  174.681
 fft3d_ps                          1079 15.3  102.218  103.602  144.686  149.074
 qmmm_el_coupling                     7  3.9    0.000    0.000   98.494   98.526
 qmmm_elec_with_gaussian              7  4.9    1.566    1.635   98.435   98.465
 xc_rho_set_and_dset_create          61 12.6    4.030    4.423   83.225   88.435
 qmmm_forces                          7  3.9    0.001    0.001   87.416   87.418
 qmmm_forces_with_gaussian            7  4.9    1.822    1.836   84.877   85.000
 qmmm_elec_with_gaussian_low          7  5.9    0.000    0.000   71.952   72.787
 qs_rho_update_rho                   61  8.1    0.000    0.000   67.707   67.707
 calculate_rho_elec                  61  9.1    1.217    1.218   67.706   67.707
 qmmm_elec_gaussian_low_G             7  6.9   64.497   65.288   64.497   65.288
 hfx_ks_matrix                       61 10.6    0.002    0.002   62.863   62.929
 qs_ks_update_qs_env_forces           7  4.9    0.000    0.000   59.504   59.505
 qmmm_force_with_gaussian_low         7  5.9    0.000    0.000   54.678   54.864
 init_scf_loop                        7  6.9    0.000    0.000   52.456   52.456
 density_rs2pw                       61 10.1    0.004    0.004   51.944   52.030
 qmmm_forces_gaussian_low_G           7  6.9   44.487   44.608   44.487   44.608
 integrate_four_center               61 11.6    2.964    3.305   34.076   34.143
 sum_up_and_integrate                61 10.6    0.805    0.832   33.569   33.629
 integrate_v_rspace                  61 11.6    0.002    0.002   32.764   32.846
 potential_pw2rs                     61 12.6    0.034    0.036   32.360   32.443
 integrate_four_center_main          61 12.6    0.085    0.117   28.991   29.128
 integrate_four_center_bin         3968 13.6   28.906   29.035   28.906   29.035
 derivatives_four_center              7  8.9    0.040    0.287   28.778   28.778
 derivatives_four_center_main         7  9.9    0.123    0.192   28.460   28.460
 derivatives_four_center_bin        658 10.9   28.202   28.343   28.202   28.343
 qs_ks_ddapc                         61 10.6    0.001    0.001   23.438   23.536
 x_to_yz                            577 16.6   14.819   15.171   23.056   23.352
 pw_scatter_p                       577 15.6   22.691   22.797   22.691   22.797
 yz_to_x                            502 15.8   10.536   11.255   19.383   22.710
 rs_pw_transfer                     530 11.9    0.010    0.011   22.196   22.260
 pw_restrict_s3                      21  5.9    6.031    6.138   21.508   21.590
 mp_alltoall_z22v                  1079 17.3   17.083   20.082   17.083   20.082
 pw_derive                          387 12.8   18.368   19.090   18.368   19.090
 pw_gather_p                        502 14.8   17.299   17.721   17.299   17.721
 qmmm_elec_with_gaussian:spline       7  5.9    0.000    0.000   17.269   17.320
 pw_prolongate_s3                    21  6.9    4.803    4.886   17.269   17.320
 grid_collocate_task_list            61 10.1   14.383   14.518   14.383   14.518
 pw_copy                            875 12.3   14.318   14.500   14.318   14.500
 mp_sum_dm3                          38  5.7   13.331   14.483   13.331   14.483
 pw_axpy                           1900  8.3   13.618   13.739   13.618   13.739
 pw_integral_ab                    2965  7.5   12.050   12.163   12.208   12.277
 xc_functional_eval                 244 13.6    0.003    0.004    7.218   12.021
 -------------------------------------------------------------------------------

 The number of warnings for this run is : 8
 
 -------------------------------------------------------------------------------
  **** **** ******  **  PROGRAM ENDED AT                 2021-10-20 16:16:25.170
 ***** ** ***  *** **   PROGRAM RAN ON                                 nid001701
 **    ****   ******    PROGRAM RAN BY                                     hjbio
 ***** **    ** ** **   PROGRAM PROCESS ID                                 44008
  **** **  *******  **  PROGRAM STOPPED IN /lus/cls01095/work/d118/d118/hjbio/qm
                                           mm-benchmarking/archer2/CPU/cp2kMD/MQ
                                           AE-B3LYP-large/6STEPS/1NODES/32CPN/4T
                                           HREADS
