 DBCSR| CPU Multiplication driver                                           BLAS
 DBCSR| Multrec recursion limit                                              512
 DBCSR| Multiplication stack size                                           1000
 DBCSR| Maximum elements for images                                    UNLIMITED
 DBCSR| Multiplicative factor virtual images                                   1
 DBCSR| Use multiplication densification                                       T
 DBCSR| Multiplication size stacks                                             3
 DBCSR| Use memory pool for CPU allocation                                     F
 DBCSR| Number of 3D layers                                               SINGLE
 DBCSR| Use MPI memory allocation                                              F
 DBCSR| Use RMA algorithm                                                      F
 DBCSR| Use Communication thread                                               T
 DBCSR| Communication thread load                                             60
 DBCSR| MPI: My node id                                                        0
 DBCSR| MPI: Number of nodes                                                  64
 DBCSR| OMP: Current number of threads                                         8
 DBCSR| OMP: Max number of threads                                             8
 DBCSR| Split modifier for TAS multiplication algorithm                  1.0E+00


  **** **** ******  **  PROGRAM STARTED AT               2021-09-01 13:35:36.109
 ***** ** ***  *** **   PROGRAM STARTED ON                             nid001691
 **    ****   ******    PROGRAM STARTED BY                                 hjbio
 ***** **    ** ** **   PROGRAM PROCESS ID                                 33063
  **** **  *******  **  PROGRAM STARTED IN /lus/cls01095/work/d118/d118/hjbio/qm
                                           mm-benchmarking/archer2/CPU/cp2kMD/CB
                                           D_PHY-PBE0/6STEPS/4NODES/128CPN/8THRE
                                           ADS

 CP2K| version string:                                          CP2K version 8.2
 CP2K| source code revision number:                                  git:310b7ab
 CP2K| cp2kflags: omp libint fftw3 libxc elpa parallel mpi3 scalapack plumed2   
 CP2K| is freely available from                            https://www.cp2k.org/
 CP2K| Program compiled at                          Thu 10 Jun 17:43:51 BST 2021
 CP2K| Program compiled on                                                 uan01
 CP2K| Program compiled for                                              ARCHER2
 CP2K| Data directory path              /work/d118/d118/hjbio/CP2K/cp2k-8.2/data
 CP2K| Input file name                                          CBD_PHY-cp2k.inp

 GLOBAL| Force Environment number                                              1
 GLOBAL| Basis set file name                                           HFX_BASIS
 GLOBAL| Potential file name                                           POTENTIAL
 GLOBAL| MM Potential file name                                     MM_POTENTIAL
 GLOBAL| Coordinate file name                                        CBD_PHY.pdb
 GLOBAL| Method name                                                        CP2K
 GLOBAL| Project name                                               CBD_PHY-PBE0
 GLOBAL| Run type                                                             MD
 GLOBAL| FFT library                                                       FFTW3
 GLOBAL| Diagonalization library                                            ELPA
 GLOBAL| Minimum number of eigenvectors for ELPA usage                        16
 GLOBAL| Orthonormality check for eigenvectors                          DISABLED
 GLOBAL| Matrix multiplication library                                    SCALAP
 GLOBAL| All-to-all communication in single precision                          F
 GLOBAL| FFTs using library dependent lengths                                  F
 GLOBAL| Grid backend                                                       AUTO
 GLOBAL| Global print level                                                  LOW
 GLOBAL| MPI I/O enabled                                                       T
 GLOBAL| Total number of message passing processes                            64
 GLOBAL| Number of threads for this process                                    8
 GLOBAL| This output is from process                                           0
 GLOBAL| CPU model name                          AMD EPYC 7742 64-Core Processor
 GLOBAL| CPUID                                                              1002

 MEMORY| system memory details [Kb]
 MEMORY|                        rank 0           min           max       average
 MEMORY| MemTotal            263568576     263568576     263568576     263568576
 MEMORY| MemFree             247189064     247189064     250082816     249259896
 MEMORY| Buffers                 91764         88264        101272         92512
 MEMORY| Cached                4735800       2357264       4735800       3150782
 MEMORY| Slab                  1775216       1607608       1775216       1663870
 MEMORY| SReclaimable           219316        141424        219316        177390
 MEMORY| MemLikelyFree       252235944     252235944     253103256     252680580



                      ************* ******** ***********   
                     ************* **********************  
                     ****     **** ****      ***********   
                     ******** ****  *******     ****       
                     *******  ****   *******   ****        
                     ****     ****       ****  ****        
                     ****     **** **********  ****        
                      ****     **** ********    ****       
                     FRONTIERS IN SIMULATION TECHNOLOGY    
                                                           
                        C.J. Mundy, S. Balasubramanian,    
                     Ken Bagchi, J. Hutter, Ari Seitsonen  
                      IFW Kuo, T. Laino, J. VandeVondele   
                                 Version 1.0               

                                                           


 EWALD| Summation is done by:                                               SPME
 EWALD| Alpha parameter [       ANGSTROM^-1]                              0.4000
 EWALD| Real Space Cutoff [          ANGSTROM]                            8.4348
 EWALD| G-space max. Miller index                         80        80        80
 EWALD| Spline interpolation order                                             6

 FORCEFIELD| WARNING: A non Critical ForceField parameter is missing! CP2K GOES!
 FORCEFIELD| Non critical parameters are:Urey-Bradley,Torsions,Impropers, Opbends and 1-4
 FORCEFIELD| All missing parameters will not contribute to the potential energy!
 FORCEFIELD| Activate the print key FF_INFO to have a list of missing parameters

 CHARGE_INFO| Total Charge of the Classical System:                    -0.825808

 SPLINE_INFO| Generating 101926 splines for NONBONDED14 interactions 
              Due to 451 different atomic kinds
  ...10192  ...20384  ...30576  ...40768  ...50960  ...61152  ...71344  ...81536  ...91728  ...101920
 SPLINE_INFO| Number of unique splines computed:            301
 SPLINE_INFO| Done

 SPLINE_INFO| Generating 101926 splines for NONBONDED interactions 
              Due to 451 different atomic kinds
  ...10192  ...20384  ...30576  ...40768  ...50960  ...61152  ...71344  ...81536  ...91728  ...101920
 SPLINE_INFO| Number of unique splines computed:            301
 SPLINE_INFO| Done

 *******************************************************************************
 *******************************************************************************
 **                                                                           **
 **     #####                         ##              ##                      **
 **    ##   ##            ##          ##              ##                      **
 **   ##     ##                       ##            ######                    **
 **   ##     ##  ##   ##  ##   #####  ##  ##   ####   ##    #####    #####    **
 **   ##     ##  ##   ##  ##  ##      ## ##   ##      ##   ##   ##  ##   ##   **
 **   ##  ## ##  ##   ##  ##  ##      ####     ###    ##   ######   ######    **
 **    ##  ###   ##   ##  ##  ##      ## ##      ##   ##   ##       ##        **
 **     #######   #####   ##   #####  ##  ##  ####    ##    #####   ##        **
 **           ##                                                    ##        **
 **                                                                           **
 **                                                ... make the atoms dance   **
 **                                                                           **
 **            Copyright (C) by CP2K developers group (2000-2021)             **
 **                      J. Chem. Phys. 152, 194103 (2020)                    **
 **                                                                           **
 *******************************************************************************


 TOTAL NUMBERS AND MAXIMUM NUMBERS

  Total number of            - Atomic kinds:                                   5
                             - Atoms:                                         68
                             - Shell sets:                                   340
                             - Shells:                                       445
                             - Primitive Cartesian functions:                476
                             - Cartesian basis functions:                   1137
                             - Spherical basis functions:                   1067

  Maximum angular momentum of- Orbital basis functions:                        2
                             - Local part of the GTH pseudopotential:          2
                             - Non-local part of the GTH pseudopotential:      0


 SCF PARAMETERS         Density guess:                                   RESTART
                        --------------------------------------------------------
                        max_scf:                                              30
                        max_scf_history:                                       0
                        max_diis:                                              4
                        --------------------------------------------------------
                        eps_scf:                                        1.00E-06
                        eps_scf_history:                                0.00E+00
                        eps_diis:                                       1.00E-01
                        eps_eigval:                                     1.00E-05
                        --------------------------------------------------------
                        level_shift [a.u.]:                                 0.00
                        --------------------------------------------------------
                        Outer loop SCF in use 
                        No variables optimised in outer loop
                        eps_scf                                         1.00E-06
                        max_scf                                               20
                        No outer loop optimization
                        step_size                                       5.00E-01

 *******************************************************************************
 *******************************************************************************
 **                                                                           **
 **             #######  ##     ## ##     ## ##     ##                        **
 **            ##     ## ###   ### ###   ### ###   ###                        **
 **            ##     ## #### #### #### #### #### ####                        **
 **            ##     ## ## ### ## ## ### ## ## ### ##                        **
 **            ##  ## ## ##     ## ##     ## ##     ##                        **
 **            ##    ##  ##     ## ##     ## ##     ##  T.Laino and F.Mohamed **
 **             ##### ## ##     ## ##     ## ##     ##  2005 - 2015           **
 **                                                                           **
 **                                                     Calculation Started.. **
 *******************************************************************************
 *******************************************************************************

 MD_PAR| Molecular dynamics protocol (MD input parameters)
 MD_PAR| Ensemble type                                                       NVE
 MD_PAR| Number of time steps                                                  6
 MD_PAR| Time step [fs]                                                 1.000000
 MD_PAR| Temperature [K]                                              300.000000
 MD_PAR| Temperature tolerance [K]                                      0.000000
 MD_PAR| Print MD information every                                    1 step(s)
 MD_PAR| File type   Print frequency [steps]                          File names
 MD_PAR| Coordinates          1                           CBD_PHY-PBE0-pos-1.xyz
 MD_PAR| Velocities           1                           CBD_PHY-PBE0-vel-1.xyz
 MD_PAR| Energies             1                              CBD_PHY-PBE0-1.ener
 MD_PAR| Dump                20                           CBD_PHY-PBE0-1.restart

 ROT| Rotational analysis information
 ROT| Principal axes and moments of inertia [a.u.]
 ROT|                           1                   2                   3
 ROT| Eigenvalues      1.56283164001E+13   1.56407408488E+13   1.56663418804E+13
 ROT|      x              0.901637047331     -0.018153263569      0.432112362589
 ROT|      y              0.323714777231      0.690893927917     -0.646431994388
 ROT|      z             -0.286808957117      0.722728191915      0.628812040859
 ROT| Number of rotovibrational vectors                                        6

 DOF| Calculation of degrees of freedom
 DOF| Number of atoms                                                     167923
 DOF| Number of intramolecular constraints                                     0
 DOF| Number of intermolecular constraints                                     0
 DOF| Invariants (translations + rotations)                                    3
 DOF| Degrees of freedom                                                  503766

 DOF| Restraints information
 DOF| Number of intramolecular restraints                                      0
 DOF| Number of intermolecular restraints                                      0

 MD_VEL| Velocities initialization
 MD_VEL| Initial temperature [K]                                      300.000000
 MD_VEL| COM velocity            -0.0000000000     0.0000000000     0.0000000000

  Translating the system in order to center the QM fragment in the QM box.

 Number of electrons:                                                        180
 Number of occupied orbitals:                                                 90
 Number of molecular orbitals:                                                90

 Number of orbital functions:                                               1067
 Number of independent orbital functions:                                   1067

 Extrapolation method: initial_guess


 SCF WAVEFUNCTION OPTIMIZATION

  ----------------------------------- OT ---------------------------------------
  Minimizer      : DIIS                : direct inversion
                                         in the iterative subspace
                                         using   7 DIIS vectors
                                         safer DIIS on
  Preconditioner : FULL_ALL            : diagonalization, state selective
  Precond_solver : DEFAULT
  stepsize       :    0.15000000                  energy_gap     :    0.08000000
  eps_taylor     :   0.10000E-15                  max_taylor     :             4
  ----------------------------------- OT ---------------------------------------

  Step     Update method      Time    Convergence         Total energy    Change
  ------------------------------------------------------------------------------
  Decoupling Energy:                                               0.0370647021
  Recoupling Energy:                                              -0.0063741479
     1 OT DIIS     0.15E+00    8.5     0.00129057      -255.9257316521 -2.56E+02
  Decoupling Energy:                                               0.0370576004
  Recoupling Energy:                                              -0.0063740314
     2 OT DIIS     0.15E+00    0.8     0.00057761      -255.9419521977 -1.62E-02
  Decoupling Energy:                                               0.0369596417
  Recoupling Energy:                                              -0.0063730135
     3 OT DIIS     0.15E+00    0.9     0.00038348      -255.9451217318 -3.17E-03
  Decoupling Energy:                                               0.0369795470
  Recoupling Energy:                                              -0.0063732416
     4 OT DIIS     0.15E+00    1.0     0.00009866      -255.9458275768 -7.06E-04
  Decoupling Energy:                                               0.0369716948
  Recoupling Energy:                                              -0.0063731487
     5 OT DIIS     0.15E+00    0.9     0.00003992      -255.9458779686 -5.04E-05
  Decoupling Energy:                                               0.0369737640
  Recoupling Energy:                                              -0.0063731649
     6 OT DIIS     0.15E+00    0.9     0.00001793      -255.9458894170 -1.14E-05
  Decoupling Energy:                                               0.0369741808
  Recoupling Energy:                                              -0.0063731680
     7 OT DIIS     0.15E+00    1.2     0.00000621      -255.9458922938 -2.88E-06
  Decoupling Energy:                                               0.0369727127
  Recoupling Energy:                                              -0.0063731518
     8 OT DIIS     0.15E+00    1.3     0.00000242      -255.9458926328 -3.39E-07
  Decoupling Energy:                                               0.0369731061
  Recoupling Energy:                                              -0.0063731556
     9 OT DIIS     0.15E+00    1.0     0.00000111      -255.9458926822 -4.94E-08
  Decoupling Energy:                                               0.0369728228
  Recoupling Energy:                                              -0.0063731526
    10 OT DIIS     0.15E+00    1.0     0.00000048      -255.9458926924 -1.02E-08

  *** SCF run converged in    10 steps ***


  Electronic density on regular grids:       -179.9999999999        0.0000000001
  Core density on regular grids:              180.9999999999       -0.0000000001
  Total charge density on r-space grids:        1.0000000000
  Total charge density g-space grids:           1.0000000000

  Overlap energy of the core charge distribution:               0.00001951532734
  Self energy of the core charge distribution:               -615.71576003586028
  Core Hamiltonian energy:                                    191.01363220817743
  Hartree energy:                                             248.20663869016005
  Exchange-correlation energy:                                -61.38430761263335
  Hartree-Fock Exchange energy:                               -18.10821018492821
  QM/MM Electrostatic energy:                                   0.04209472735353

  Total energy:                                              -255.94589269240342

  outer SCF iter =    1 RMS gradient =   0.48E-06 energy =       -255.9458926924
  outer SCF loop converged in   1 iterations or   10 steps

  Decoupling Energy:                                               0.0369728028
  Recoupling Energy:                                              -0.0063731523

 ENERGY| Total FORCE_EVAL ( QMMM ) energy [a.u.]:          -1088.110859624497607

 MD_INI| MD initialization
 MD_INI| Potential energy [hartree]                          -0.108811085962E+04
 MD_INI| Total kinetic energy [hartree]                       0.239300084734E+03
 MD_INI| QM kinetic energy [hartree]                          0.106639360339E+00
 MD_INI| Total temperature [K]                                        300.000000
 MD_INI| QM temperature [K]                                           330.137318
 MD_INI| Cell volume [bohr^3]                                 1.137316355424E+07
 MD_INI| Cell volume [ang^3]                                  1.685328937712E+06
 MD_INI| Cell lengths [bohr]      2.24884969E+02  2.24884969E+02  2.24884969E+02
 MD_INI| Cell lengths [ang]       1.19004000E+02  1.19004000E+02  1.19004000E+02
 MD_INI| Cell angles [deg]        9.00000000E+01  9.00000000E+01  9.00000000E+01

  Translating the system in order to center the QM fragment in the QM box.

 Number of electrons:                                                        180
 Number of occupied orbitals:                                                 90
 Number of molecular orbitals:                                                90

 Number of orbital functions:                                               1067
 Number of independent orbital functions:                                   1067

 Extrapolation method: ASPC


 SCF WAVEFUNCTION OPTIMIZATION

  ----------------------------------- OT ---------------------------------------
  Minimizer      : DIIS                : direct inversion
                                         in the iterative subspace
                                         using   7 DIIS vectors
                                         safer DIIS on
  Preconditioner : FULL_ALL            : diagonalization, state selective
  Precond_solver : DEFAULT
  stepsize       :    0.15000000                  energy_gap     :    0.08000000
  eps_taylor     :   0.10000E-15                  max_taylor     :             4
  ----------------------------------- OT ---------------------------------------

  Step     Update method      Time    Convergence         Total energy    Change
  ------------------------------------------------------------------------------
  Decoupling Energy:                                               0.0370014667
  Recoupling Energy:                                              -0.0063734172
     1 OT DIIS     0.15E+00    3.2     0.00075899      -255.7182133688 -2.56E+02
  Decoupling Energy:                                               0.0370082385
  Recoupling Energy:                                              -0.0063735355
     2 OT DIIS     0.15E+00    0.7     0.00032685      -255.7237312474 -5.52E-03
  Decoupling Energy:                                               0.0370087411
  Recoupling Energy:                                              -0.0063735590
     3 OT DIIS     0.15E+00    1.4     0.00019068      -255.7247685782 -1.04E-03
  Decoupling Energy:                                               0.0370199882
  Recoupling Energy:                                              -0.0063736817
     4 OT DIIS     0.15E+00    1.0     0.00006054      -255.7249610152 -1.92E-04
  Decoupling Energy:                                               0.0370216762
  Recoupling Energy:                                              -0.0063737045
     5 OT DIIS     0.15E+00    1.3     0.00001954      -255.7249775799 -1.66E-05
  Decoupling Energy:                                               0.0370210004
  Recoupling Energy:                                              -0.0063736984
     6 OT DIIS     0.15E+00    0.9     0.00000817      -255.7249798383 -2.26E-06
  Decoupling Energy:                                               0.0370221929
  Recoupling Energy:                                              -0.0063737124
     7 OT DIIS     0.15E+00    1.0     0.00000308      -255.7249803003 -4.62E-07
  Decoupling Energy:                                               0.0370222382
  Recoupling Energy:                                              -0.0063737132
     8 OT DIIS     0.15E+00    0.9     0.00000136      -255.7249803776 -7.72E-08
  Decoupling Energy:                                               0.0370224658
  Recoupling Energy:                                              -0.0063737159
     9 OT DIIS     0.15E+00    0.7     0.00000058      -255.7249803933 -1.57E-08

  *** SCF run converged in     9 steps ***


  Electronic density on regular grids:       -180.0000000000        0.0000000000
  Core density on regular grids:              180.9999999999       -0.0000000001
  Total charge density on r-space grids:        0.9999999999
  Total charge density g-space grids:           0.9999999999

  Overlap energy of the core charge distribution:               0.00002422739645
  Self energy of the core charge distribution:               -615.71576003586028
  Core Hamiltonian energy:                                    191.21095010761189
  Hartree energy:                                             248.07774797405904
  Exchange-correlation energy:                                -61.42683492947836
  Hartree-Fock Exchange energy:                               -18.12283147852097
  QM/MM Electrostatic energy:                                   0.25172374149703

  Total energy:                                              -255.72498039329520

  outer SCF iter =    1 RMS gradient =   0.58E-06 energy =       -255.7249803933
  outer SCF loop converged in   1 iterations or    9 steps

  Decoupling Energy:                                               0.0370224944
  Recoupling Energy:                                              -0.0063737164

 ENERGY| Total FORCE_EVAL ( QMMM ) energy [a.u.]:          -1059.962356562916057

 MD| ***************************************************************************
 MD| Step number                                                               1
 MD| Time [fs]                                                          1.000000
 MD| Conserved quantity [hartree]                            -0.841461427192E+03
 MD| ---------------------------------------------------------------------------
 MD|                                          Instantaneous             Averages
 MD| CPU time per MD step [s]                     66.462489            66.462489
 MD| Energy drift per atom [K]           0.138202490528E+02   0.000000000000E+00
 MD| Potential energy [hartree]         -0.105996235656E+04  -0.105996235656E+04
 MD| Total kinetic energy [hartree]      0.218500929370E+03   0.218500929370E+03
 MD| QM kinetic energy [hartree]         0.121347245537E+00   0.121347245537E+00
 MD| Total temperature [K]                       273.925013           273.925013
 MD| QM temperature [K]                          375.670429           375.670429
 MD| ***************************************************************************

  Translating the system in order to center the QM fragment in the QM box.

 Number of electrons:                                                        180
 Number of occupied orbitals:                                                 90
 Number of molecular orbitals:                                                90

 Number of orbital functions:                                               1067
 Number of independent orbital functions:                                   1067

 Extrapolation method: ASPC


 SCF WAVEFUNCTION OPTIMIZATION

  ----------------------------------- OT ---------------------------------------
  Minimizer      : DIIS                : direct inversion
                                         in the iterative subspace
                                         using   7 DIIS vectors
                                         safer DIIS on
  Preconditioner : FULL_ALL            : diagonalization, state selective
  Precond_solver : DEFAULT
  stepsize       :    0.15000000                  energy_gap     :    0.08000000
  eps_taylor     :   0.10000E-15                  max_taylor     :             4
  ----------------------------------- OT ---------------------------------------

  Step     Update method      Time    Convergence         Total energy    Change
  ------------------------------------------------------------------------------
  Decoupling Energy:                                               0.0370781898
  Recoupling Energy:                                              -0.0063743357
     1 OT DIIS     0.15E+00    2.7     0.00029255      -255.3622523414 -2.55E+02
  Decoupling Energy:                                               0.0370714482
  Recoupling Energy:                                              -0.0063742686
     2 OT DIIS     0.15E+00    1.2     0.00012379      -255.3630880965 -8.36E-04
  Decoupling Energy:                                               0.0370747210
  Recoupling Energy:                                              -0.0063743003
     3 OT DIIS     0.15E+00    1.0     0.00005679      -255.3632554145 -1.67E-04
  Decoupling Energy:                                               0.0370720784
  Recoupling Energy:                                              -0.0063742776
     4 OT DIIS     0.15E+00    1.4     0.00001757      -255.3632742056 -1.88E-05
  Decoupling Energy:                                               0.0370725494
  Recoupling Energy:                                              -0.0063742816
     5 OT DIIS     0.15E+00    1.0     0.00000682      -255.3632757325 -1.53E-06
  Decoupling Energy:                                               0.0370729663
  Recoupling Energy:                                              -0.0063742867
     6 OT DIIS     0.15E+00    1.0     0.00000313      -255.3632759902 -2.58E-07
  Decoupling Energy:                                               0.0370729511
  Recoupling Energy:                                              -0.0063742866
     7 OT DIIS     0.15E+00    0.9     0.00000105      -255.3632760512 -6.10E-08
  Decoupling Energy:                                               0.0370730090
  Recoupling Energy:                                              -0.0063742873
     8 OT DIIS     0.15E+00    0.7     0.00000048      -255.3632760613 -1.02E-08

  *** SCF run converged in     8 steps ***


  Electronic density on regular grids:       -180.0000000000       -0.0000000000
  Core density on regular grids:              180.9999999999       -0.0000000001
  Total charge density on r-space grids:        0.9999999998
  Total charge density g-space grids:           0.9999999998

  Overlap energy of the core charge distribution:               0.00005088940115
  Self energy of the core charge distribution:               -615.71576003586028
  Core Hamiltonian energy:                                    191.44418389504654
  Hartree energy:                                             247.94136889985415
  Exchange-correlation energy:                                -61.47332434231238
  Hartree-Fock Exchange energy:                               -18.13880650032494
  QM/MM Electrostatic energy:                                   0.57901113284820

  Total energy:                                              -255.36327606134762

  outer SCF iter =    1 RMS gradient =   0.48E-06 energy =       -255.3632760613
  outer SCF loop converged in   1 iterations or    8 steps

  Decoupling Energy:                                               0.0370730257
  Recoupling Energy:                                              -0.0063742875

 ENERGY| Total FORCE_EVAL ( QMMM ) energy [a.u.]:          -1061.235329425668397

 MD| ***************************************************************************
 MD| Step number                                                               2
 MD| Time [fs]                                                          2.000000
 MD| Conserved quantity [hartree]                            -0.842817774982E+03
 MD| ---------------------------------------------------------------------------
 MD|                                          Instantaneous             Averages
 MD| CPU time per MD step [s]                     28.156149            47.309319
 MD| Energy drift per atom [K]           0.112696738143E+02   0.563483690713E+01
 MD| Potential energy [hartree]         -0.106123532943E+04  -0.106059884299E+04
 MD| Total kinetic energy [hartree]      0.218417554443E+03   0.218459241907E+03
 MD| QM kinetic energy [hartree]         0.111577919124E+00   0.116462582330E+00
 MD| Total temperature [K]                       273.820489           273.872751
 MD| QM temperature [K]                          345.426256           360.548342
 MD| ***************************************************************************

  Translating the system in order to center the QM fragment in the QM box.

 Number of electrons:                                                        180
 Number of occupied orbitals:                                                 90
 Number of molecular orbitals:                                                90

 Number of orbital functions:                                               1067
 Number of independent orbital functions:                                   1067

 Extrapolation method: ASPC


 SCF WAVEFUNCTION OPTIMIZATION

  ----------------------------------- OT ---------------------------------------
  Minimizer      : DIIS                : direct inversion
                                         in the iterative subspace
                                         using   7 DIIS vectors
                                         safer DIIS on
  Preconditioner : FULL_ALL            : diagonalization, state selective
  Precond_solver : DEFAULT
  stepsize       :    0.15000000                  energy_gap     :    0.08000000
  eps_taylor     :   0.10000E-15                  max_taylor     :             4
  ----------------------------------- OT ---------------------------------------

  Step     Update method      Time    Convergence         Total energy    Change
  ------------------------------------------------------------------------------
  Decoupling Energy:                                               0.0371231332
  Recoupling Energy:                                              -0.0063748339
     1 OT DIIS     0.15E+00    2.6     0.00057308      -254.8840269576 -2.55E+02
  Decoupling Energy:                                               0.0371263999
  Recoupling Energy:                                              -0.0063748790
     2 OT DIIS     0.15E+00    0.8     0.00022565      -254.8871524134 -3.13E-03
  Decoupling Energy:                                               0.0371270765
  Recoupling Energy:                                              -0.0063748845
     3 OT DIIS     0.15E+00    0.9     0.00008226      -254.8877077296 -5.55E-04
  Decoupling Energy:                                               0.0371223306
  Recoupling Energy:                                              -0.0063748373
     4 OT DIIS     0.15E+00    1.1     0.00002751      -254.8877579397 -5.02E-05
  Decoupling Energy:                                               0.0371233212
  Recoupling Energy:                                              -0.0063748479
     5 OT DIIS     0.15E+00    0.7     0.00001038      -254.8877617392 -3.80E-06
  Decoupling Energy:                                               0.0371231624
  Recoupling Energy:                                              -0.0063748451
     6 OT DIIS     0.15E+00    0.8     0.00000440      -254.8877623254 -5.86E-07
  Decoupling Energy:                                               0.0371230836
  Recoupling Energy:                                              -0.0063748446
     7 OT DIIS     0.15E+00    1.0     0.00000136      -254.8877624160 -9.05E-08
  Decoupling Energy:                                               0.0371230865
  Recoupling Energy:                                              -0.0063748447
     8 OT DIIS     0.15E+00    0.7     0.00000059      -254.8877624268 -1.08E-08

  *** SCF run converged in     8 steps ***


  Electronic density on regular grids:       -180.0000000003       -0.0000000003
  Core density on regular grids:              180.9999999999       -0.0000000001
  Total charge density on r-space grids:        0.9999999996
  Total charge density g-space grids:           0.9999999996

  Overlap energy of the core charge distribution:               0.00005124504563
  Self energy of the core charge distribution:               -615.71576003586028
  Core Hamiltonian energy:                                    191.49126392268224
  Hartree energy:                                             247.90727581269851
  Exchange-correlation energy:                                -61.48094730701557
  Hartree-Fock Exchange energy:                               -18.14140201123217
  QM/MM Electrostatic energy:                                   1.05175594688915

  Total energy:                                              -254.88776242679251

  outer SCF iter =    1 RMS gradient =   0.59E-06 energy =       -254.8877624268
  outer SCF loop converged in   1 iterations or    8 steps

  Decoupling Energy:                                               0.0371230860
  Recoupling Energy:                                              -0.0063748446

 ENERGY| Total FORCE_EVAL ( QMMM ) energy [a.u.]:          -1082.045340524581434

 MD| ***************************************************************************
 MD| Step number                                                               3
 MD| Time [fs]                                                          3.000000
 MD| Conserved quantity [hartree]                            -0.846392350654E+03
 MD| ---------------------------------------------------------------------------
 MD|                                          Instantaneous             Averages
 MD| CPU time per MD step [s]                     27.195556            40.604731
 MD| Energy drift per atom [K]           0.454778119512E+01   0.527248500312E+01
 MD| Potential energy [hartree]         -0.108204534052E+04  -0.106774767550E+04
 MD| Total kinetic energy [hartree]      0.235652989870E+03   0.224190491228E+03
 MD| QM kinetic energy [hartree]         0.117355665021E+00   0.116760276561E+00
 MD| Total temperature [K]                       295.427797           281.057767
 MD| QM temperature [K]                          363.313175           361.469953
 MD| ***************************************************************************

  Translating the system in order to center the QM fragment in the QM box.

 Number of electrons:                                                        180
 Number of occupied orbitals:                                                 90
 Number of molecular orbitals:                                                90

 Number of orbital functions:                                               1067
 Number of independent orbital functions:                                   1067

 Extrapolation method: ASPC


 SCF WAVEFUNCTION OPTIMIZATION

  ----------------------------------- OT ---------------------------------------
  Minimizer      : DIIS                : direct inversion
                                         in the iterative subspace
                                         using   7 DIIS vectors
                                         safer DIIS on
  Preconditioner : FULL_ALL            : diagonalization, state selective
  Precond_solver : DEFAULT
  stepsize       :    0.15000000                  energy_gap     :    0.08000000
  eps_taylor     :   0.10000E-15                  max_taylor     :             4
  ----------------------------------- OT ---------------------------------------

  Step     Update method      Time    Convergence         Total energy    Change
  ------------------------------------------------------------------------------
  Decoupling Energy:                                               0.0371655151
  Recoupling Energy:                                              -0.0063753287
     1 OT DIIS     0.15E+00    3.0     0.00026669      -254.3373018091 -2.54E+02
  Decoupling Energy:                                               0.0371742165
  Recoupling Energy:                                              -0.0063754096
     2 OT DIIS     0.15E+00    1.0     0.00010695      -254.3379927708 -6.91E-04
  Decoupling Energy:                                               0.0371691620
  Recoupling Energy:                                              -0.0063753573
     3 OT DIIS     0.15E+00    0.7     0.00003996      -254.3381210079 -1.28E-04
  Decoupling Energy:                                               0.0371714705
  Recoupling Energy:                                              -0.0063753813
     4 OT DIIS     0.15E+00    1.5     0.00001261      -254.3381308858 -9.88E-06
  Decoupling Energy:                                               0.0371702577
  Recoupling Energy:                                              -0.0063753693
     5 OT DIIS     0.15E+00    0.9     0.00000533      -254.3381317216 -8.36E-07
  Decoupling Energy:                                               0.0371705288
  Recoupling Energy:                                              -0.0063753714
     6 OT DIIS     0.15E+00    0.9     0.00000188      -254.3381318568 -1.35E-07
  Decoupling Energy:                                               0.0371705417
  Recoupling Energy:                                              -0.0063753718
     7 OT DIIS     0.15E+00    0.9     0.00000064      -254.3381318753 -1.84E-08

  *** SCF run converged in     7 steps ***


  Electronic density on regular grids:       -179.9999999999        0.0000000001
  Core density on regular grids:              180.9999999999       -0.0000000001
  Total charge density on r-space grids:        1.0000000000
  Total charge density g-space grids:           1.0000000000

  Overlap energy of the core charge distribution:               0.00002358474933
  Self energy of the core charge distribution:               -615.71576003586028
  Core Hamiltonian energy:                                    191.34734643893546
  Hartree energy:                                             247.97607919759997
  Exchange-correlation energy:                                -61.44937218579770
  Hartree-Fock Exchange energy:                               -18.13041949869864
  QM/MM Electrostatic energy:                                   1.63397062377861

  Total energy:                                              -254.33813187529324

  outer SCF iter =    1 RMS gradient =   0.64E-06 energy =       -254.3381318753
  outer SCF loop converged in   1 iterations or    7 steps

  Decoupling Energy:                                               0.0371704711
  Recoupling Energy:                                              -0.0063753710

 ENERGY| Total FORCE_EVAL ( QMMM ) energy [a.u.]:          -1079.714053276663435

 MD| ***************************************************************************
 MD| Step number                                                               4
 MD| Time [fs]                                                          4.000000
 MD| Conserved quantity [hartree]                            -0.842113597238E+03
 MD| ---------------------------------------------------------------------------
 MD|                                          Instantaneous             Averages
 MD| CPU time per MD step [s]                     27.592123            37.351579
 MD| Energy drift per atom [K]           0.125938609676E+02   0.710282899425E+01
 MD| Potential energy [hartree]         -0.107971405328E+04  -0.107073926995E+04
 MD| Total kinetic energy [hartree]      0.237600456039E+03   0.227542982431E+03
 MD| QM kinetic energy [hartree]         0.148327936224E+00   0.124652191476E+00
 MD| Total temperature [K]                       297.869250           285.260638
 MD| QM temperature [K]                          459.198057           385.901979
 MD| ***************************************************************************

  Translating the system in order to center the QM fragment in the QM box.

 Number of electrons:                                                        180
 Number of occupied orbitals:                                                 90
 Number of molecular orbitals:                                                90

 Number of orbital functions:                                               1067
 Number of independent orbital functions:                                   1067

 Extrapolation method: ASPC


 SCF WAVEFUNCTION OPTIMIZATION

  ----------------------------------- OT ---------------------------------------
  Minimizer      : DIIS                : direct inversion
                                         in the iterative subspace
                                         using   7 DIIS vectors
                                         safer DIIS on
  Preconditioner : FULL_ALL            : diagonalization, state selective
  Precond_solver : DEFAULT
  stepsize       :    0.15000000                  energy_gap     :    0.08000000
  eps_taylor     :   0.10000E-15                  max_taylor     :             4
  ----------------------------------- OT ---------------------------------------

  Step     Update method      Time    Convergence         Total energy    Change
  ------------------------------------------------------------------------------
  Decoupling Energy:                                               0.0372101469
  Recoupling Energy:                                              -0.0063758443
     1 OT DIIS     0.15E+00    2.9     0.00032118      -253.7449330574 -2.54E+02
  Decoupling Energy:                                               0.0372072853
  Recoupling Energy:                                              -0.0063758027
     2 OT DIIS     0.15E+00    0.9     0.00013150      -253.7458494686 -9.16E-04
  Decoupling Energy:                                               0.0372093223
  Recoupling Energy:                                              -0.0063758211
     3 OT DIIS     0.15E+00    0.9     0.00006214      -253.7460079962 -1.59E-04
  Decoupling Energy:                                               0.0372088461
  Recoupling Energy:                                              -0.0063758158
     4 OT DIIS     0.15E+00    0.9     0.00002404      -253.7460390353 -3.10E-05
  Decoupling Energy:                                               0.0372096148
  Recoupling Energy:                                              -0.0063758219
     5 OT DIIS     0.15E+00    1.3     0.00000519      -253.7460415151 -2.48E-06
  Decoupling Energy:                                               0.0372093006
  Recoupling Energy:                                              -0.0063758193
     6 OT DIIS     0.15E+00    0.8     0.00000249      -253.7460416569 -1.42E-07
  Decoupling Energy:                                               0.0372093062
  Recoupling Energy:                                              -0.0063758191
     7 OT DIIS     0.15E+00    0.9     0.00000089      -253.7460416883 -3.14E-08

  *** SCF run converged in     7 steps ***


  Electronic density on regular grids:       -180.0000000000       -0.0000000000
  Core density on regular grids:              180.9999999999       -0.0000000001
  Total charge density on r-space grids:        0.9999999998
  Total charge density g-space grids:           0.9999999998

  Overlap energy of the core charge distribution:               0.00001841800261
  Self energy of the core charge distribution:               -615.71576003586028
  Core Hamiltonian energy:                                    191.22475038461403
  Hartree energy:                                             248.04794543371170
  Exchange-correlation energy:                                -61.41799155070522
  Hartree-Fock Exchange energy:                               -18.11952319038843
  QM/MM Electrostatic energy:                                   2.23451885230370

  Total energy:                                              -253.74604168832195

  outer SCF iter =    1 RMS gradient =   0.89E-06 energy =       -253.7460416883
  outer SCF loop converged in   1 iterations or    7 steps

  Decoupling Energy:                                               0.0372093315
  Recoupling Energy:                                              -0.0063758194

 ENERGY| Total FORCE_EVAL ( QMMM ) energy [a.u.]:          -1094.307011238758832

 MD| ***************************************************************************
 MD| Step number                                                               5
 MD| Time [fs]                                                          5.000000
 MD| Conserved quantity [hartree]                            -0.848389415850E+03
 MD| ---------------------------------------------------------------------------
 MD|                                          Instantaneous             Averages
 MD| CPU time per MD step [s]                     27.714528            35.424169
 MD| Energy drift per atom [K]           0.792354250146E+00   0.584073404543E+01
 MD| Potential energy [hartree]         -0.109430701124E+04  -0.107545281821E+04
 MD| Total kinetic energy [hartree]      0.245917595389E+03   0.231217905022E+03
 MD| QM kinetic energy [hartree]         0.157565199640E+00   0.131234793109E+00
 MD| Total temperature [K]                       308.296082           289.867726
 MD| QM temperature [K]                          487.795053           406.280594
 MD| ***************************************************************************

  Translating the system in order to center the QM fragment in the QM box.

 Number of electrons:                                                        180
 Number of occupied orbitals:                                                 90
 Number of molecular orbitals:                                                90

 Number of orbital functions:                                               1067
 Number of independent orbital functions:                                   1067

 Extrapolation method: ASPC


 SCF WAVEFUNCTION OPTIMIZATION

  ----------------------------------- OT ---------------------------------------
  Minimizer      : DIIS                : direct inversion
                                         in the iterative subspace
                                         using   7 DIIS vectors
                                         safer DIIS on
  Preconditioner : FULL_ALL            : diagonalization, state selective
  Precond_solver : DEFAULT
  stepsize       :    0.15000000                  energy_gap     :    0.08000000
  eps_taylor     :   0.10000E-15                  max_taylor     :             4
  ----------------------------------- OT ---------------------------------------

  Step     Update method      Time    Convergence         Total energy    Change
  ------------------------------------------------------------------------------
  Decoupling Energy:                                               0.0372440176
  Recoupling Energy:                                              -0.0063762172
     1 OT DIIS     0.15E+00    2.9     0.00048931      -253.1925197272 -2.53E+02
  Decoupling Energy:                                               0.0372418687
  Recoupling Energy:                                              -0.0063762258
     2 OT DIIS     0.15E+00    1.1     0.00019205      -253.1946661285 -2.15E-03
  Decoupling Energy:                                               0.0372397550
  Recoupling Energy:                                              -0.0063761958
     3 OT DIIS     0.15E+00    1.2     0.00008062      -253.1950231210 -3.57E-04
  Decoupling Energy:                                               0.0372397760
  Recoupling Energy:                                              -0.0063761978
     4 OT DIIS     0.15E+00    0.9     0.00002235      -253.1950819159 -5.88E-05
  Decoupling Energy:                                               0.0372388343
  Recoupling Energy:                                              -0.0063761874
     5 OT DIIS     0.15E+00    0.7     0.00000832      -253.1950844662 -2.55E-06
  Decoupling Energy:                                               0.0372394777
  Recoupling Energy:                                              -0.0063761928
     6 OT DIIS     0.15E+00    1.0     0.00000284      -253.1950848214 -3.55E-07
  Decoupling Energy:                                               0.0372392268
  Recoupling Energy:                                              -0.0063761904
     7 OT DIIS     0.15E+00    0.8     0.00000084      -253.1950848613 -3.99E-08

  *** SCF run converged in     7 steps ***


  Electronic density on regular grids:       -180.0000000000       -0.0000000000
  Core density on regular grids:              180.9999999999       -0.0000000001
  Total charge density on r-space grids:        0.9999999999
  Total charge density g-space grids:           0.9999999999

  Overlap energy of the core charge distribution:               0.00001843293118
  Self energy of the core charge distribution:               -615.71576003586028
  Core Hamiltonian energy:                                    191.21894982660848
  Hartree energy:                                             248.05853350627729
  Exchange-correlation energy:                                -61.40902826442516
  Hartree-Fock Exchange energy:                               -18.11645398102523
  QM/MM Electrostatic energy:                                   2.76865565423041

  Total energy:                                              -253.19508486126335

  outer SCF iter =    1 RMS gradient =   0.84E-06 energy =       -253.1950848613
  outer SCF loop converged in   1 iterations or    7 steps

  Decoupling Energy:                                               0.0372392263
  Recoupling Energy:                                              -0.0063761903

 ENERGY| Total FORCE_EVAL ( QMMM ) energy [a.u.]:          -1057.339965560098335

 MD| ***************************************************************************
 MD| Step number                                                               6
 MD| Time [fs]                                                          6.000000
 MD| Conserved quantity [hartree]                            -0.842900323488E+03
 MD| ---------------------------------------------------------------------------
 MD|                                          Instantaneous             Averages
 MD| CPU time per MD step [s]                     26.772685            33.982255
 MD| Energy drift per atom [K]           0.111144435880E+02   0.671968563586E+01
 MD| Potential energy [hartree]         -0.105733996556E+04  -0.107243400943E+04
 MD| Total kinetic energy [hartree]      0.214439642072E+03   0.228421527864E+03
 MD| QM kinetic energy [hartree]         0.141133726892E+00   0.132884615406E+00
 MD| Total temperature [K]                       268.833556           286.362031
 MD| QM temperature [K]                          436.926009           411.388163
 MD| ***************************************************************************

 -------------------------------------------------------------------------------
 -                                                                             -
 -                                DBCSR STATISTICS                             -
 -                                                                             -
 -------------------------------------------------------------------------------
 COUNTER                                    TOTAL       BLAS       SMM       ACC
 flops    26 x    26 x    26             14447472     100.0%      0.0%      0.0%
 flops    26 x    26 x    32             35563008     100.0%      0.0%      0.0%
 flops    26 x    32 x    26             35563008     100.0%      0.0%      0.0%
 flops    32 x    26 x    26             35563008     100.0%      0.0%      0.0%
 flops    26 x    26 x   128             39975936     100.0%      0.0%      0.0%
 flops     9 x    26 x    26             43695288     100.0%      0.0%      0.0%
 flops    22 x    26 x    26             65585520     100.0%      0.0%      0.0%
 flops    26 x    26 x   137             85573488     100.0%      0.0%      0.0%
 flops    32 x    32 x    26             87539712     100.0%      0.0%      0.0%
 flops    26 x    32 x    32             87539712     100.0%      0.0%      0.0%
 flops    32 x    26 x    32             87539712     100.0%      0.0%      0.0%
 flops     9 x    26 x   128             90574848     100.0%      0.0%      0.0%
 flops    26 x    32 x   128             98402304     100.0%      0.0%      0.0%
 flops    32 x    26 x   128             98402304     100.0%      0.0%      0.0%
 flops     9 x    32 x    26            100638720     100.0%      0.0%      0.0%
 flops     9 x    26 x    32            100638720     100.0%      0.0%      0.0%
 flops    22 x    26 x   128            129153024     100.0%      0.0%      0.0%
 flops    22 x    26 x    32            143503360     100.0%      0.0%      0.0%
 flops    22 x    32 x    26            143503360     100.0%      0.0%      0.0%
 flops    31 x    26 x    26            164295040     100.0%      0.0%      0.0%
 flops     9 x     9 x    26            165405240     100.0%      0.0%      0.0%
 flops     9 x    26 x   137            193886784     100.0%      0.0%      0.0%
 flops    26 x    26 x   133            207687480     100.0%      0.0%      0.0%
 flops    26 x    32 x   137            210642432     100.0%      0.0%      0.0%
 flops    32 x    26 x   137            210642432     100.0%      0.0%      0.0%
 flops    32 x    32 x    32            215482368     100.0%      0.0%      0.0%
 flops     9 x    32 x   128            222953472     100.0%      0.0%      0.0%
 flops    32 x    32 x   128            242221056     100.0%      0.0%      0.0%
 flops     9 x    32 x    32            256241664     100.0%      0.0%      0.0%
 flops    22 x    26 x   137            276468192     100.0%      0.0%      0.0%
 flops    22 x    32 x   128            317915136     100.0%      0.0%      0.0%
 flops    31 x    26 x   128            363976704     100.0%      0.0%      0.0%
 flops    22 x    32 x    32            375316480     100.0%      0.0%      0.0%
 flops    31 x    32 x    26            404418560     100.0%      0.0%      0.0%
 flops    31 x    26 x    32            404418560     100.0%      0.0%      0.0%
 flops     9 x     9 x    32            407151360     100.0%      0.0%      0.0%
 flops    22 x     9 x    26            415855440     100.0%      0.0%      0.0%
 flops     9 x    22 x    26            416576160     100.0%      0.0%      0.0%
 flops     9 x    26 x   133            470564640     100.0%      0.0%      0.0%
 flops     9 x    32 x   137            477259776     100.0%      0.0%      0.0%
 flops    26 x    32 x   133            511230720     100.0%      0.0%      0.0%
 flops    32 x    26 x   133            511230720     100.0%      0.0%      0.0%
 flops    32 x    32 x   137            518504448     100.0%      0.0%      0.0%
 flops    22 x    26 x   133            670990320     100.0%      0.0%      0.0%
 flops    22 x    32 x   137            680537088     100.0%      0.0%      0.0%
 flops    31 x    26 x   137            779137632     100.0%      0.0%      0.0%
 flops     9 x    26 x     9            802701900     100.0%      0.0%      0.0%
 flops    31 x    32 x   128            895942656     100.0%      0.0%      0.0%
 flops    31 x    32 x    32            995491840     100.0%      0.0%      0.0%
 flops    22 x     9 x    32           1023644160     100.0%      0.0%      0.0%
 flops     9 x    22 x    32           1025418240     100.0%      0.0%      0.0%
 flops    22 x    22 x    26           1109908800     100.0%      0.0%      0.0%
 flops     9 x    32 x   133           1158312960     100.0%      0.0%      0.0%
 flops    32 x    32 x   133           1258414080     100.0%      0.0%      0.0%
 flops    22 x    32 x   133           1651668480     100.0%      0.0%      0.0%
 flops    31 x    26 x   133           1890972720     100.0%      0.0%      0.0%
 flops    31 x    32 x   137           1917877248     100.0%      0.0%      0.0%
 flops     9 x    32 x     9           1975881600     100.0%      0.0%      0.0%
 flops    22 x    26 x     9           2081079000     100.0%      0.0%      0.0%
 flops     9 x    26 x    22           2081079000     100.0%      0.0%      0.0%
 flops    22 x    22 x    32           2732083200     100.0%      0.0%      0.0%
 flops    31 x    32 x   133           4654702080     100.0%      0.0%      0.0%
 flops    22 x    32 x     9           5122656000     100.0%      0.0%      0.0%
 flops     9 x    32 x    22           5122656000     100.0%      0.0%      0.0%
 flops    22 x    26 x    22           5395390000     100.0%      0.0%      0.0%
 flops    22 x    32 x    22          13280960000     100.0%      0.0%      0.0%
 flops inhomo. stacks                 13125490560     100.0%      0.0%      0.0%
 flops total                        80.916743E+09     100.0%      0.0%      0.0%
 flops max/rank                      3.889950E+09     100.0%      0.0%      0.0%
 matmuls inhomo. stacks                     55440     100.0%      0.0%      0.0%
 matmuls total                            3187809     100.0%      0.0%      0.0%
 number of processed stacks                992154     100.0%      0.0%      0.0%
 average stack size                                     3.2       0.0       0.0
 marketing flops                    85.702451E+09
 -------------------------------------------------------------------------------
 # multiplications                           1307
 max memory usage/rank               2.844176E+09
 # max total images/rank                        1
 # max 3D layers                                1
 # MPI messages exchanged                 1171072
 MPI messages size (bytes):
  total size                        26.090156E+09
  min size                           0.000000E+00
  max size                         150.152000E+03
  average size                      22.278865E+03
 MPI breakdown and total messages size (bytes):
             size <=      128              766731                        0
       128 < size <=     8192               69573                500935008
      8192 < size <=    32768               83300               2394641760
     32768 < size <=   131072              118727               4280966144
    131072 < size <=  4194304              132741              18914201880
   4194304 < size <= 16777216                   0                        0
  16777216 < size                               0                        0
 -------------------------------------------------------------------------------
 -                                                                             -
 -                      DBCSR MESSAGE PASSING PERFORMANCE                      -
 -                                                                             -
 -------------------------------------------------------------------------------
 ROUTINE             CALLS      AVE VOLUME [Bytes]
 MP_Bcast               67                     12.
 MP_Allreduce         6987                      8.
 MP_Alltoall          5386                  12769.
 MP_ISend            41796                  13240.
 MP_IRecv            41796                  12673.
 -------------------------------------------------------------------------------

 -------------------------------------------------------------------------------
 -                                                                             -
 -                                GRID STATISTICS                              -
 -                                                                             -
 -------------------------------------------------------------------------------
 LP    KERNEL             BACKEND                              COUNT     PERCENT
 2     collocate ortho    REF                                1126269      19.05%
 2     integrate ortho    REF                                1106014      18.71%
 1     collocate ortho    REF                                 943978      15.97%
 1     integrate ortho    REF                                 870340      14.72%
 3     integrate ortho    REF                                 570062       9.64%
 3     collocate ortho    REF                                 500530       8.47%
 0     collocate ortho    REF                                 281245       4.76%
 0     integrate ortho    REF                                 249988       4.23%
 4     integrate ortho    REF                                 121240       2.05%
 4     collocate ortho    REF                                  73823       1.25%
 0     collocate general  REF                                  30464       0.52%
 1     integrate general  REF                                  30464       0.52%
 5     integrate ortho    REF                                   8201       0.14%
 -------------------------------------------------------------------------------

 MEMORY| Estimated peak process memory [MiB]                                2740

 -------------------------------------------------------------------------------
 -                                                                             -
 -                         MESSAGE PASSING PERFORMANCE                         -
 -                                                                             -
 -------------------------------------------------------------------------------

 ROUTINE             CALLS      AVE VOLUME [Bytes]
 MP_Group                8
 MP_Bcast             6942               10565479.
 MP_Allreduce         2477                1659290.
 MP_Sync               437
 MP_Alltoall          1344               17978175.
 MP_ISendRecv        26019                  64774.
 MP_Wait             33670
 MP_comm_split          21
 MP_ISend             6475                 556371.
 MP_IRecv             6468                 556115.
 MP_Recv                49                 102432.
 -------------------------------------------------------------------------------


 -------------------------------------------------------------------------------
 -                                                                             -
 -                           R E F E R E N C E S                               -
 -                                                                             -
 -------------------------------------------------------------------------------
 
 CP2K version 8.2, the CP2K developers group (2021).
 CP2K is freely available from https://www.cp2k.org/ .

 Kuehne,Thomas D.; Iannuzzi,Marcella; Del Ben,Mauro;
 Rybkin,Vladimir V.; Seewald,Patrick; Stein,Frederick; Laino,Teodoro;
 Khaliullin,Rustam Z.; Schuett,Ole; Schiffmann,Florian; Golze,Dorothea;
 Wilhelm,Jan; Chulkov,Sergey; Bani-Hashemian,Mohammad Hossein;
 Weber,Valery; Borstnik,Urban; Taillefumier,Mathieu;
 Jakobovits,Alice Shoshana; Lazzaro,Alfio; Pabst,Hans; Mueller,Tiziano;
 Schade,Robert; Guidon,Manuel; Andermatt,Samuel; Holmberg,Nico;
 Schenter,Gregory K.; Hehn,Anna; Bussy,Augustin; Belleflamme,Fabian;
 Tabacchi,Gloria; Gloess,Andreas; Lass,Michael; Bethune,Iain;
 Mundy,Christopher J.; Plessl,Christian; Watkins,Matt;
 VandeVondele,Joost; Krack,Matthias; Hutter,Juerg. 
 The Journal of Chemical Physics, 152 (19), (2020). 
 CP2K: An electronic structure and molecular dynamics software package -
 Quickstep: Efficient and accurate electronic structure calculations.
 https://doi.org/10.1063/5.0007045

 Schuett, Ole; Messmer, Peter; Hutter, Juerg; VandeVondele, Joost. 
 Electronic Structure Calculations on Graphics Processing Units, John
 Wiley & Sons, Ltd, 173-190 (2016). 
 GPU-Accelerated Sparse Matrix-Matrix Multiplication for
 Linear Scaling Density Functional Theory.
 https://doi.org/10.1002/9781118670712.ch8

 Borstnik, U; VandeVondele, J; Weber, V; Hutter, J. 
 PARALLEL COMPUTING, 40 (5-6), 47-58 (2014). 
 Sparse matrix multiplication: The distributed block-compressed sparse
 row library.
 https://doi.org/10.1016/j.parco.2014.03.012

 Hutter, J; Iannuzzi, M; Schiffmann, F; VandeVondele, J. 
 WIREs Comput Mol Sci., 4 (1), 15-25 (2014). 
 CP2K: atomistic simulations of condensed matter systems.
 https://doi.org/10.1002/wcms.1159

 Marek, A; Blum, V; Johanni, R; Havu, V; Lang, B; Auckenthaler, T;
 Heinecke, A; Bungartz, H; Lederer, H. 
 Journal of Physics: Condensed Matter, 26 (21), (2014). 
 The ELPA library: scalable parallel eigenvalue solutions for
 electronic structure
 theory and computational science.
 https://doi.org/10.1088/0953-8984/26/21/213201

 Guidon, M; Hutter, J; VandeVondele, J. 
 JOURNAL OF CHEMICAL THEORY AND COMPUTATION, 5 (11), 3010-3021 (2009). 
 Robust Periodic Hartree-Fock Exchange for Large-Scale Simulations Using
 Gaussian Basis Sets.
 https://doi.org/10.1021/ct900494g

 Guidon, M; Schiffmann, F; Hutter, J; VandeVondele, J. 
 JOURNAL OF CHEMICAL PHYSICS, 128 (21), 214104 (2008). 
 Ab initio molecular dynamics using hybrid density functionals.
 https://doi.org/10.1063/1.2931945

 Kuhne, TD; Krack, M; Mohamed, FR; Parrinello, M. 
 PHYSICAL REVIEW LETTERS, 98 (6), 066401 (2007). 
 Efficient and accurate Car-Parrinello-like approach to
 Born-Oppenheimer molecular dynamics.
 https://doi.org/10.1103/PhysRevLett.98.066401

 Laino, T; Mohamed, F; Laio, A; Parrinello, M. 
 JOURNAL OF CHEMICAL THEORY AND COMPUTATION, 2 (5), 1370-1378 (2006). 
 An efficient linear-scaling electrostatic coupling for treating
 periodic boundary conditions in QM/MM simulations.
 https://doi.org/10.1021/ct6001169

 Laino, T; Mohamed, F; Laio, A; Parrinello, M. 
 JOURNAL OF CHEMICAL THEORY AND COMPUTATION, 1 (6), 1176-1184 (2005). 
 An efficient real space multigrid QM/MM electrostatic coupling.
 https://doi.org/10.1021/ct050123f

 Krack, M. 
 THEORETICAL CHEMISTRY ACCOUNTS, 114 (1-3), 145-152 (2005). 
 Pseudopotentials for H to Kr optimized for gradient-corrected
 exchange-correlation functionals.
 https://doi.org/10.1007/s00214-005-0655-y

 VandeVondele, J; Krack, M; Mohamed, F; Parrinello, M; Chassaing, T;
 Hutter, J. COMPUTER PHYSICS COMMUNICATIONS, 167 (2), 103-128 (2005). 
 QUICKSTEP: Fast and accurate density functional calculations using a
 mixed Gaussian and plane waves approach.
 https://doi.org/10.1016/j.cpc.2004.12.014

 Frigo, M; Johnson, SG. 
 PROCEEDINGS OF THE IEEE, 93 (2), 216-231 (2005). 
 The design and implementation of FFTW3.
 https://doi.org/10.1109/JPROC.2004.840301

 Kolafa, J. 
 JOURNAL OF COMPUTATIONAL CHEMISTRY, 25 (3), 335-342 (2004). 
 Time-reversible always stable predictor-corrector method for molecular dynamics of polarizable molecules.
 https://doi.org/10.1002/jcc.10385

 VandeVondele, J; Hutter, J. 
 JOURNAL OF CHEMICAL PHYSICS, 118 (10), 4365-4369 (2003). 
 An efficient orbital transformation method for electronic structure
 calculations.
 https://doi.org/10.1063/1.1543154

 Hartwigsen, C; Goedecker, S; Hutter, J. 
 PHYSICAL REVIEW B, 58 (7), 3641-3662 (1998). 
 Relativistic separable dual-space Gaussian pseudopotentials from H to Rn.
 https://doi.org/10.1103/PhysRevB.58.3641

 Lippert, G; Hutter, J; Parrinello, M. 
 MOLECULAR PHYSICS, 92 (3), 477-487 (1997). 
 A hybrid Gaussian and plane wave density functional scheme.
 https://doi.org/10.1080/002689797170220

 Perdew, JP; Burke, K; Ernzerhof, M. 
 PHYSICAL REVIEW LETTERS, 77 (18), 3865-3868 (1996). 
 Generalized gradient approximation made simple.
 https://doi.org/10.1103/PhysRevLett.77.3865

 Goedecker, S; Teter, M; Hutter, J. 
 PHYSICAL REVIEW B, 54 (3), 1703-1710 (1996). 
 Separable dual-space Gaussian pseudopotentials.
 https://doi.org/10.1103/PhysRevB.54.1703

 ESSMANN, U; PERERA, L; BERKOWITZ, ML; DARDEN, T; LEE, H; PEDERSEN, LG. 
 JOURNAL OF CHEMICAL PHYSICS, 103 (19), 8577-8593 (1995). 
 A SMOOTH PARTICLE MESH EWALD METHOD.
 https://doi.org/10.1063/1.470117

 BLOCHL, PE. 
 JOURNAL OF CHEMICAL PHYSICS, 103 (17), 7422-7428 (1995). 
 ELECTROSTATIC DECOUPLING OF PERIODIC IMAGES OF PLANE-WAVE-EXPANDED
 DENSITIES AND DERIVED ATOMIC POINT CHARGES.
 https://doi.org/10.1063/1.470314


 -------------------------------------------------------------------------------
 -                                                                             -
 -                                T I M I N G                                  -
 -                                                                             -
 -------------------------------------------------------------------------------
 SUBROUTINE                       CALLS  ASD         SELF TIME        TOTAL TIME
                                MAXIMUM       AVERAGE  MAXIMUM  AVERAGE  MAXIMUM
 CP2K                                 1  1.0    0.325    0.345  252.981  252.982
 qs_mol_dyn_low                       1  2.0    0.040    0.042  204.968  206.548
 velocity_verlet                      6  3.0    0.020    0.023  166.571  166.615
 qs_forces                            7  3.9    0.005    0.006  117.381  117.382
 rebuild_ks_matrix                   63  8.5    0.001    0.001   96.441   96.476
 qs_ks_build_kohn_sham_matrix        63  9.5    0.020    0.021   96.440   96.475
 qs_energies                          7  4.9    0.007    0.008   77.812   77.847
 scf_env_do_scf                       7  5.9    0.000    0.002   74.592   74.593
 hfx_ks_matrix                       63 10.5    0.004    0.006   68.259   68.482
 qs_ks_update_qs_env                 63  7.8    0.001    0.001   56.983   57.013
 scf_env_do_scf_inner_loop           56  6.8    0.004    0.007   49.053   49.065
 qmmm_env_create                      1  2.0    7.887    7.975   46.001   46.003
 qmmm_forces                          7  3.9    0.021    0.022   41.276   41.277
 qmmm_forces_with_gaussian            7  4.9    0.725    0.732   40.404   40.845
 qs_ks_update_qs_env_forces           7  4.9    0.000    0.000   39.468   39.472
 qmmm_el_coupling                     7  3.9    0.000    0.001   38.124   38.334
 qmmm_elec_with_gaussian              7  4.9    0.741    0.767   38.120   38.330
 fist_init                            1  3.0    0.008    0.012   34.978   34.979
 derivatives_four_center              7  8.9    0.012    0.267   34.802   34.803
 derivatives_four_center_main         7  9.9    0.109    0.222   34.370   34.372
 derivatives_four_center_bin        823 10.9   33.755   34.194   33.755   34.194
 integrate_four_center               63 11.5    3.609    4.740   33.444   33.663
 init_scf_loop                        7  6.9    0.003    0.003   25.518   25.520
 integrate_four_center_main          63 12.5    0.079    0.108   23.526   23.985
 integrate_four_center_bin         4411 13.5   23.446   23.922   23.446   23.922
 pw_transfer                       1337 12.0    0.091    0.104   21.783   22.632
 fft_wrap_pw1pw2                   1113 13.1    0.012    0.016   21.555   22.254
 pw_integral_ab                    2967  7.5   20.483   21.082   20.946   21.586
 fft_wrap_pw1pw2_200                707 14.4    0.875    0.897   19.995   20.956
 fft3d_ps                          1113 15.1    2.758    3.144   19.648   20.342
 rdparm_amber_8                       2  6.5   13.068   14.344   19.641   19.700
 pw_restrict_s3                      21  5.9    2.401    2.491   18.391   18.600
 qmmm_elec_with_gaussian_low          7  5.9    0.000    0.000   18.115   18.453
 topology_control                     1  4.0    0.005    0.007   17.813   17.925
 force_field_control                  1  4.0    0.002    0.007   16.989   17.120
 mp_alltoall_z22v                  1113 17.1   15.817   16.664   15.817   16.664
 qmmm_force_with_gaussian_low         7  5.9    0.000    0.000   15.778   16.086
 qs_vxc_create                       63 10.5    0.004    0.004   15.986   15.989
 xc_vxc_pw_create                    63 11.5    0.230    0.240   15.983   15.986
 qmmm_elec_with_gaussian:spline       7  5.9    0.000    0.000   13.896   14.087
 pw_prolongate_s3                    21  6.9    1.817    1.886   13.896   14.087
 qmmm_forces_gaussian_low_R           7  6.9    0.000    0.000   12.973   13.274
 qmmm_forces_with_gaussian_LG         7  7.9   12.973   13.274   12.973   13.274
 mp_sum_dm3                          38  5.7   12.224   13.019   12.224   13.019
 qs_rho_update_rho                   63  7.9    0.010    0.012   12.521   12.525
 calculate_rho_elec                  63  8.9    0.126    0.127   12.512   12.516
 qmmm_elec_gaussian_low_R             7  6.9    0.000    0.002   11.620   12.072
 qmmm_elec_with_gaussian_LG           7  7.9   11.620   12.072   11.620   12.072
 connectivity_control                 2  4.0    0.007    0.008   11.325   11.326
 read_connectivity_amber              1  6.0    0.001    0.001   11.187   11.189
 rs_pw_transfer                     546 11.8    0.009    0.013    9.953   10.434
 sum_up_and_integrate                63 10.5    0.051    0.052    9.043    9.191
 density_rs2pw                       63  9.9    0.003    0.006    8.641    9.186
 yz_to_x                            518 15.7    0.493    0.876    8.449    9.143
 integrate_v_rspace                  63 11.5    0.003    0.006    8.993    9.141
 x_to_yz                            595 16.5    0.563    1.233    8.424    8.625
 read_force_field_amber               1  5.0    0.012    0.013    8.466    8.523
 force_field_pack                     1  5.0    0.011    0.020    8.417    8.506
 potential_pw2rs                     63 12.5    0.007    0.010    7.742    7.842
 parser_read_line                925134  7.6    0.589    1.947    7.193    7.779
 parser_read_line_low               933  8.5    0.088    2.820    6.604    7.626
 broadcast_input_information        933  9.5    0.005    0.014    6.516    7.584
 xc_rho_set_and_dset_create          63 12.5    0.079    0.084    6.846    7.188
 mp_bcast_i                        3758 10.5    5.843    6.959    5.843    6.959
 mp_waitany                        6468 13.4    5.677    6.819    5.677    6.819
 qmmm_elec_gaussian_low_G             7  6.9    6.495    6.785    6.495    6.785
 -------------------------------------------------------------------------------

 The number of warnings for this run is : 0
 
 -------------------------------------------------------------------------------
  **** **** ******  **  PROGRAM ENDED AT                 2021-09-01 13:39:50.992
 ***** ** ***  *** **   PROGRAM RAN ON                                 nid001691
 **    ****   ******    PROGRAM RAN BY                                     hjbio
 ***** **    ** ** **   PROGRAM PROCESS ID                                 33063
  **** **  *******  **  PROGRAM STOPPED IN /lus/cls01095/work/d118/d118/hjbio/qm
                                           mm-benchmarking/archer2/CPU/cp2kMD/CB
                                           D_PHY-PBE0/6STEPS/4NODES/128CPN/8THRE
                                           ADS
