 DBCSR| CPU Multiplication driver                                           BLAS
 DBCSR| Multrec recursion limit                                              512
 DBCSR| Multiplication stack size                                           1000
 DBCSR| Maximum elements for images                                    UNLIMITED
 DBCSR| Multiplicative factor virtual images                                   1
 DBCSR| Use multiplication densification                                       T
 DBCSR| Multiplication size stacks                                             3
 DBCSR| Use memory pool for CPU allocation                                     F
 DBCSR| Number of 3D layers                                               SINGLE
 DBCSR| Use MPI memory allocation                                              F
 DBCSR| Use RMA algorithm                                                      F
 DBCSR| Use Communication thread                                               T
 DBCSR| Communication thread load                                             75
 DBCSR| MPI: My node id                                                        0
 DBCSR| MPI: Number of nodes                                                  32
 DBCSR| OMP: Current number of threads                                         4
 DBCSR| OMP: Max number of threads                                             4
 DBCSR| Split modifier for TAS multiplication algorithm                  1.0E+00


  **** **** ******  **  PROGRAM STARTED AT               2021-08-31 18:01:55.889
 ***** ** ***  *** **   PROGRAM STARTED ON                             nid001757
 **    ****   ******    PROGRAM STARTED BY                                 hjbio
 ***** **    ** ** **   PROGRAM PROCESS ID                                124272
  **** **  *******  **  PROGRAM STARTED IN /lus/cls01095/work/d118/d118/hjbio/qm
                                           mm-benchmarking/archer2/CPU/cp2kMD/CB
                                           D_PHY-PBE0/6STEPS/1NODES/128CPN/4THRE
                                           ADS

 CP2K| version string:                                          CP2K version 8.2
 CP2K| source code revision number:                                  git:310b7ab
 CP2K| cp2kflags: omp libint fftw3 libxc elpa parallel mpi3 scalapack plumed2   
 CP2K| is freely available from                            https://www.cp2k.org/
 CP2K| Program compiled at                          Thu 10 Jun 17:43:51 BST 2021
 CP2K| Program compiled on                                                 uan01
 CP2K| Program compiled for                                              ARCHER2
 CP2K| Data directory path              /work/d118/d118/hjbio/CP2K/cp2k-8.2/data
 CP2K| Input file name                                          CBD_PHY-cp2k.inp

 GLOBAL| Force Environment number                                              1
 GLOBAL| Basis set file name                                           HFX_BASIS
 GLOBAL| Potential file name                                           POTENTIAL
 GLOBAL| MM Potential file name                                     MM_POTENTIAL
 GLOBAL| Coordinate file name                                        CBD_PHY.pdb
 GLOBAL| Method name                                                        CP2K
 GLOBAL| Project name                                               CBD_PHY-PBE0
 GLOBAL| Run type                                                             MD
 GLOBAL| FFT library                                                       FFTW3
 GLOBAL| Diagonalization library                                            ELPA
 GLOBAL| Minimum number of eigenvectors for ELPA usage                        16
 GLOBAL| Orthonormality check for eigenvectors                          DISABLED
 GLOBAL| Matrix multiplication library                                    SCALAP
 GLOBAL| All-to-all communication in single precision                          F
 GLOBAL| FFTs using library dependent lengths                                  F
 GLOBAL| Grid backend                                                       AUTO
 GLOBAL| Global print level                                                  LOW
 GLOBAL| MPI I/O enabled                                                       T
 GLOBAL| Total number of message passing processes                            32
 GLOBAL| Number of threads for this process                                    4
 GLOBAL| This output is from process                                           0
 GLOBAL| CPU model name                          AMD EPYC 7742 64-Core Processor
 GLOBAL| CPUID                                                              1002

 MEMORY| system memory details [Kb]
 MEMORY|                        rank 0           min           max       average
 MEMORY| MemTotal            263568576     263568576     263568576     263568576
 MEMORY| MemFree             248332868     248332868     248332868     248332868
 MEMORY| Buffers                318464        318464        318464        318464
 MEMORY| Cached                3337760       3337760       3337760       3337760
 MEMORY| Slab                  1797552       1797552       1797552       1797552
 MEMORY| SReclaimable           231164        231164        231164        231164
 MEMORY| MemLikelyFree       252220256     252220256     252220256     252220256



                      ************* ******** ***********   
                     ************* **********************  
                     ****     **** ****      ***********   
                     ******** ****  *******     ****       
                     *******  ****   *******   ****        
                     ****     ****       ****  ****        
                     ****     **** **********  ****        
                      ****     **** ********    ****       
                     FRONTIERS IN SIMULATION TECHNOLOGY    
                                                           
                        C.J. Mundy, S. Balasubramanian,    
                     Ken Bagchi, J. Hutter, Ari Seitsonen  
                      IFW Kuo, T. Laino, J. VandeVondele   
                                 Version 1.0               

                                                           


 EWALD| Summation is done by:                                               SPME
 EWALD| Alpha parameter [       ANGSTROM^-1]                              0.4000
 EWALD| Real Space Cutoff [          ANGSTROM]                            8.4348
 EWALD| G-space max. Miller index                         80        80        80
 EWALD| Spline interpolation order                                             6

 FORCEFIELD| WARNING: A non Critical ForceField parameter is missing! CP2K GOES!
 FORCEFIELD| Non critical parameters are:Urey-Bradley,Torsions,Impropers, Opbends and 1-4
 FORCEFIELD| All missing parameters will not contribute to the potential energy!
 FORCEFIELD| Activate the print key FF_INFO to have a list of missing parameters

 CHARGE_INFO| Total Charge of the Classical System:                    -0.825808

 SPLINE_INFO| Generating 101926 splines for NONBONDED14 interactions 
              Due to 451 different atomic kinds
  ...10192  ...20384  ...30576  ...40768  ...50960  ...61152  ...71344  ...81536  ...91728  ...101920
 SPLINE_INFO| Number of unique splines computed:            301
 SPLINE_INFO| Done

 SPLINE_INFO| Generating 101926 splines for NONBONDED interactions 
              Due to 451 different atomic kinds
  ...10192  ...20384  ...30576  ...40768  ...50960  ...61152  ...71344  ...81536  ...91728  ...101920
 SPLINE_INFO| Number of unique splines computed:            301
 SPLINE_INFO| Done

 *******************************************************************************
 *******************************************************************************
 **                                                                           **
 **     #####                         ##              ##                      **
 **    ##   ##            ##          ##              ##                      **
 **   ##     ##                       ##            ######                    **
 **   ##     ##  ##   ##  ##   #####  ##  ##   ####   ##    #####    #####    **
 **   ##     ##  ##   ##  ##  ##      ## ##   ##      ##   ##   ##  ##   ##   **
 **   ##  ## ##  ##   ##  ##  ##      ####     ###    ##   ######   ######    **
 **    ##  ###   ##   ##  ##  ##      ## ##      ##   ##   ##       ##        **
 **     #######   #####   ##   #####  ##  ##  ####    ##    #####   ##        **
 **           ##                                                    ##        **
 **                                                                           **
 **                                                ... make the atoms dance   **
 **                                                                           **
 **            Copyright (C) by CP2K developers group (2000-2021)             **
 **                      J. Chem. Phys. 152, 194103 (2020)                    **
 **                                                                           **
 *******************************************************************************


 TOTAL NUMBERS AND MAXIMUM NUMBERS

  Total number of            - Atomic kinds:                                   5
                             - Atoms:                                         68
                             - Shell sets:                                   340
                             - Shells:                                       445
                             - Primitive Cartesian functions:                476
                             - Cartesian basis functions:                   1137
                             - Spherical basis functions:                   1067

  Maximum angular momentum of- Orbital basis functions:                        2
                             - Local part of the GTH pseudopotential:          2
                             - Non-local part of the GTH pseudopotential:      0


 SCF PARAMETERS         Density guess:                                   RESTART
                        --------------------------------------------------------
                        max_scf:                                              30
                        max_scf_history:                                       0
                        max_diis:                                              4
                        --------------------------------------------------------
                        eps_scf:                                        1.00E-06
                        eps_scf_history:                                0.00E+00
                        eps_diis:                                       1.00E-01
                        eps_eigval:                                     1.00E-05
                        --------------------------------------------------------
                        level_shift [a.u.]:                                 0.00
                        --------------------------------------------------------
                        Outer loop SCF in use 
                        No variables optimised in outer loop
                        eps_scf                                         1.00E-06
                        max_scf                                               20
                        No outer loop optimization
                        step_size                                       5.00E-01

 *******************************************************************************
 *******************************************************************************
 **                                                                           **
 **             #######  ##     ## ##     ## ##     ##                        **
 **            ##     ## ###   ### ###   ### ###   ###                        **
 **            ##     ## #### #### #### #### #### ####                        **
 **            ##     ## ## ### ## ## ### ## ## ### ##                        **
 **            ##  ## ## ##     ## ##     ## ##     ##                        **
 **            ##    ##  ##     ## ##     ## ##     ##  T.Laino and F.Mohamed **
 **             ##### ## ##     ## ##     ## ##     ##  2005 - 2015           **
 **                                                                           **
 **                                                     Calculation Started.. **
 *******************************************************************************
 *******************************************************************************

 MD_PAR| Molecular dynamics protocol (MD input parameters)
 MD_PAR| Ensemble type                                                       NVE
 MD_PAR| Number of time steps                                                  6
 MD_PAR| Time step [fs]                                                 1.000000
 MD_PAR| Temperature [K]                                              300.000000
 MD_PAR| Temperature tolerance [K]                                      0.000000
 MD_PAR| Print MD information every                                    1 step(s)
 MD_PAR| File type   Print frequency [steps]                          File names
 MD_PAR| Coordinates          1                           CBD_PHY-PBE0-pos-1.xyz
 MD_PAR| Velocities           1                           CBD_PHY-PBE0-vel-1.xyz
 MD_PAR| Energies             1                              CBD_PHY-PBE0-1.ener
 MD_PAR| Dump                20                           CBD_PHY-PBE0-1.restart

 ROT| Rotational analysis information
 ROT| Principal axes and moments of inertia [a.u.]
 ROT|                           1                   2                   3
 ROT| Eigenvalues      1.56283164001E+13   1.56407408488E+13   1.56663418804E+13
 ROT|      x              0.901637047331     -0.018153263569      0.432112362589
 ROT|      y              0.323714777231      0.690893927917     -0.646431994388
 ROT|      z             -0.286808957117      0.722728191915      0.628812040859
 ROT| Number of rotovibrational vectors                                        6

 DOF| Calculation of degrees of freedom
 DOF| Number of atoms                                                     167923
 DOF| Number of intramolecular constraints                                     0
 DOF| Number of intermolecular constraints                                     0
 DOF| Invariants (translations + rotations)                                    3
 DOF| Degrees of freedom                                                  503766

 DOF| Restraints information
 DOF| Number of intramolecular restraints                                      0
 DOF| Number of intermolecular restraints                                      0

 MD_VEL| Velocities initialization
 MD_VEL| Initial temperature [K]                                      300.000000
 MD_VEL| COM velocity            -0.0000000000     0.0000000000     0.0000000000

  Translating the system in order to center the QM fragment in the QM box.

 Number of electrons:                                                        180
 Number of occupied orbitals:                                                 90
 Number of molecular orbitals:                                                90

 Number of orbital functions:                                               1067
 Number of independent orbital functions:                                   1067

 Extrapolation method: initial_guess


 SCF WAVEFUNCTION OPTIMIZATION

  ----------------------------------- OT ---------------------------------------
  Minimizer      : DIIS                : direct inversion
                                         in the iterative subspace
                                         using   7 DIIS vectors
                                         safer DIIS on
  Preconditioner : FULL_ALL            : diagonalization, state selective
  Precond_solver : DEFAULT
  stepsize       :    0.15000000                  energy_gap     :    0.08000000
  eps_taylor     :   0.10000E-15                  max_taylor     :             4
  ----------------------------------- OT ---------------------------------------

  Step     Update method      Time    Convergence         Total energy    Change
  ------------------------------------------------------------------------------
  Decoupling Energy:                                               0.0370647021
  Recoupling Energy:                                              -0.0063741479
     1 OT DIIS     0.15E+00   11.2     0.00129057      -255.9257316521 -2.56E+02
  Decoupling Energy:                                               0.0370576004
  Recoupling Energy:                                              -0.0063740314
     2 OT DIIS     0.15E+00    2.0     0.00057761      -255.9419521977 -1.62E-02
  Decoupling Energy:                                               0.0369596417
  Recoupling Energy:                                              -0.0063730135
     3 OT DIIS     0.15E+00    2.0     0.00038348      -255.9451217318 -3.17E-03
  Decoupling Energy:                                               0.0369795470
  Recoupling Energy:                                              -0.0063732416
     4 OT DIIS     0.15E+00    2.0     0.00009866      -255.9458275768 -7.06E-04
  Decoupling Energy:                                               0.0369716948
  Recoupling Energy:                                              -0.0063731487
     5 OT DIIS     0.15E+00    2.0     0.00003992      -255.9458779686 -5.04E-05
  Decoupling Energy:                                               0.0369737640
  Recoupling Energy:                                              -0.0063731649
     6 OT DIIS     0.15E+00    2.0     0.00001793      -255.9458894170 -1.14E-05
  Decoupling Energy:                                               0.0369741808
  Recoupling Energy:                                              -0.0063731680
     7 OT DIIS     0.15E+00    2.0     0.00000621      -255.9458922938 -2.88E-06
  Decoupling Energy:                                               0.0369727127
  Recoupling Energy:                                              -0.0063731518
     8 OT DIIS     0.15E+00    2.0     0.00000242      -255.9458926328 -3.39E-07
  Decoupling Energy:                                               0.0369731061
  Recoupling Energy:                                              -0.0063731556
     9 OT DIIS     0.15E+00    2.0     0.00000111      -255.9458926822 -4.94E-08
  Decoupling Energy:                                               0.0369728228
  Recoupling Energy:                                              -0.0063731526
    10 OT DIIS     0.15E+00    2.0     0.00000048      -255.9458926924 -1.02E-08

  *** SCF run converged in    10 steps ***


  Electronic density on regular grids:       -179.9999999999        0.0000000001
  Core density on regular grids:              180.9999999999       -0.0000000001
  Total charge density on r-space grids:        1.0000000000
  Total charge density g-space grids:           1.0000000000

  Overlap energy of the core charge distribution:               0.00001951532734
  Self energy of the core charge distribution:               -615.71576003586028
  Core Hamiltonian energy:                                    191.01363220817879
  Hartree energy:                                             248.20663869015891
  Exchange-correlation energy:                                -61.38430761263378
  Hartree-Fock Exchange energy:                               -18.10821018492845
  QM/MM Electrostatic energy:                                   0.04209472735409

  Total energy:                                              -255.94589269240333

  outer SCF iter =    1 RMS gradient =   0.48E-06 energy =       -255.9458926924
  outer SCF loop converged in   1 iterations or   10 steps

  Decoupling Energy:                                               0.0369728028
  Recoupling Energy:                                              -0.0063731523

 ENERGY| Total FORCE_EVAL ( QMMM ) energy [a.u.]:          -1088.110859624510113

 MD_INI| MD initialization
 MD_INI| Potential energy [hartree]                          -0.108811085962E+04
 MD_INI| Total kinetic energy [hartree]                       0.239300084734E+03
 MD_INI| QM kinetic energy [hartree]                          0.106639360339E+00
 MD_INI| Total temperature [K]                                        300.000000
 MD_INI| QM temperature [K]                                           330.137318
 MD_INI| Cell volume [bohr^3]                                 1.137316355424E+07
 MD_INI| Cell volume [ang^3]                                  1.685328937712E+06
 MD_INI| Cell lengths [bohr]      2.24884969E+02  2.24884969E+02  2.24884969E+02
 MD_INI| Cell lengths [ang]       1.19004000E+02  1.19004000E+02  1.19004000E+02
 MD_INI| Cell angles [deg]        9.00000000E+01  9.00000000E+01  9.00000000E+01

  Translating the system in order to center the QM fragment in the QM box.

 Number of electrons:                                                        180
 Number of occupied orbitals:                                                 90
 Number of molecular orbitals:                                                90

 Number of orbital functions:                                               1067
 Number of independent orbital functions:                                   1067

 Extrapolation method: ASPC


 SCF WAVEFUNCTION OPTIMIZATION

  ----------------------------------- OT ---------------------------------------
  Minimizer      : DIIS                : direct inversion
                                         in the iterative subspace
                                         using   7 DIIS vectors
                                         safer DIIS on
  Preconditioner : FULL_ALL            : diagonalization, state selective
  Precond_solver : DEFAULT
  stepsize       :    0.15000000                  energy_gap     :    0.08000000
  eps_taylor     :   0.10000E-15                  max_taylor     :             4
  ----------------------------------- OT ---------------------------------------

  Step     Update method      Time    Convergence         Total energy    Change
  ------------------------------------------------------------------------------
  Decoupling Energy:                                               0.0370014667
  Recoupling Energy:                                              -0.0063734172
     1 OT DIIS     0.15E+00    8.5     0.00075899      -255.7182133727 -2.56E+02
  Decoupling Energy:                                               0.0370082386
  Recoupling Energy:                                              -0.0063735355
     2 OT DIIS     0.15E+00    2.0     0.00032685      -255.7237312515 -5.52E-03
  Decoupling Energy:                                               0.0370087411
  Recoupling Energy:                                              -0.0063735590
     3 OT DIIS     0.15E+00    2.0     0.00019068      -255.7247685822 -1.04E-03
  Decoupling Energy:                                               0.0370199882
  Recoupling Energy:                                              -0.0063736817
     4 OT DIIS     0.15E+00    2.0     0.00006054      -255.7249610193 -1.92E-04
  Decoupling Energy:                                               0.0370216763
  Recoupling Energy:                                              -0.0063737045
     5 OT DIIS     0.15E+00    2.0     0.00001954      -255.7249775840 -1.66E-05
  Decoupling Energy:                                               0.0370210005
  Recoupling Energy:                                              -0.0063736984
     6 OT DIIS     0.15E+00    2.0     0.00000817      -255.7249798424 -2.26E-06
  Decoupling Energy:                                               0.0370221929
  Recoupling Energy:                                              -0.0063737124
     7 OT DIIS     0.15E+00    2.0     0.00000308      -255.7249803044 -4.62E-07
  Decoupling Energy:                                               0.0370222382
  Recoupling Energy:                                              -0.0063737132
     8 OT DIIS     0.15E+00    2.0     0.00000136      -255.7249803817 -7.72E-08
  Decoupling Energy:                                               0.0370224658
  Recoupling Energy:                                              -0.0063737159
     9 OT DIIS     0.15E+00    2.0     0.00000058      -255.7249803974 -1.57E-08

  *** SCF run converged in     9 steps ***


  Electronic density on regular grids:       -180.0000000000        0.0000000000
  Core density on regular grids:              180.9999999999       -0.0000000001
  Total charge density on r-space grids:        0.9999999999
  Total charge density g-space grids:           0.9999999999

  Overlap energy of the core charge distribution:               0.00002422739645
  Self energy of the core charge distribution:               -615.71576003586028
  Core Hamiltonian energy:                                    191.21095001331105
  Hartree energy:                                             248.07774805176723
  Exchange-correlation energy:                                -61.42683491652974
  Hartree-Fock Exchange energy:                               -18.12283147716983
  QM/MM Electrostatic energy:                                   0.25172373967959

  Total energy:                                              -255.72498039740552

  outer SCF iter =    1 RMS gradient =   0.58E-06 energy =       -255.7249803974
  outer SCF loop converged in   1 iterations or    9 steps

  Decoupling Energy:                                               0.0370224944
  Recoupling Energy:                                              -0.0063737164

 ENERGY| Total FORCE_EVAL ( QMMM ) energy [a.u.]:          -1059.962356567059942

 MD| ***************************************************************************
 MD| Step number                                                               1
 MD| Time [fs]                                                          1.000000
 MD| Conserved quantity [hartree]                            -0.841461427142E+03
 MD| ---------------------------------------------------------------------------
 MD|                                          Instantaneous             Averages
 MD| CPU time per MD step [s]                    150.897702           150.897702
 MD| Energy drift per atom [K]           0.138202491486E+02   0.000000000000E+00
 MD| Potential energy [hartree]         -0.105996235657E+04  -0.105996235657E+04
 MD| Total kinetic energy [hartree]      0.218500929426E+03   0.218500929426E+03
 MD| QM kinetic energy [hartree]         0.121347300690E+00   0.121347300690E+00
 MD| Total temperature [K]                       273.925013           273.925013
 MD| QM temperature [K]                          375.670600           375.670600
 MD| ***************************************************************************

  Translating the system in order to center the QM fragment in the QM box.

 Number of electrons:                                                        180
 Number of occupied orbitals:                                                 90
 Number of molecular orbitals:                                                90

 Number of orbital functions:                                               1067
 Number of independent orbital functions:                                   1067

 Extrapolation method: ASPC


 SCF WAVEFUNCTION OPTIMIZATION

  ----------------------------------- OT ---------------------------------------
  Minimizer      : DIIS                : direct inversion
                                         in the iterative subspace
                                         using   7 DIIS vectors
                                         safer DIIS on
  Preconditioner : FULL_ALL            : diagonalization, state selective
  Precond_solver : DEFAULT
  stepsize       :    0.15000000                  energy_gap     :    0.08000000
  eps_taylor     :   0.10000E-15                  max_taylor     :             4
  ----------------------------------- OT ---------------------------------------

  Step     Update method      Time    Convergence         Total energy    Change
  ------------------------------------------------------------------------------
  Decoupling Energy:                                               0.0370781907
  Recoupling Energy:                                              -0.0063743357
     1 OT DIIS     0.15E+00    8.4     0.00029255      -255.3622522387 -2.55E+02
  Decoupling Energy:                                               0.0370714457
  Recoupling Energy:                                              -0.0063742686
     2 OT DIIS     0.15E+00    2.0     0.00012379      -255.3630880199 -8.36E-04
  Decoupling Energy:                                               0.0370747197
  Recoupling Energy:                                              -0.0063743003
     3 OT DIIS     0.15E+00    2.0     0.00005679      -255.3632553423 -1.67E-04
  Decoupling Energy:                                               0.0370720758
  Recoupling Energy:                                              -0.0063742776
     4 OT DIIS     0.15E+00    2.0     0.00001757      -255.3632741358 -1.88E-05
  Decoupling Energy:                                               0.0370725471
  Recoupling Energy:                                              -0.0063742816
     5 OT DIIS     0.15E+00    2.0     0.00000682      -255.3632756627 -1.53E-06
  Decoupling Energy:                                               0.0370729640
  Recoupling Energy:                                              -0.0063742866
     6 OT DIIS     0.15E+00    2.0     0.00000313      -255.3632759204 -2.58E-07
  Decoupling Energy:                                               0.0370729488
  Recoupling Energy:                                              -0.0063742866
     7 OT DIIS     0.15E+00    2.0     0.00000106      -255.3632759813 -6.10E-08
  Decoupling Energy:                                               0.0370730067
  Recoupling Energy:                                              -0.0063742873
     8 OT DIIS     0.15E+00    2.0     0.00000048      -255.3632759915 -1.02E-08

  *** SCF run converged in     8 steps ***


  Electronic density on regular grids:       -180.0000000000       -0.0000000000
  Core density on regular grids:              180.9999999999       -0.0000000001
  Total charge density on r-space grids:        0.9999999998
  Total charge density g-space grids:           0.9999999998

  Overlap energy of the core charge distribution:               0.00005088942733
  Self energy of the core charge distribution:               -615.71576003586028
  Core Hamiltonian energy:                                    191.44418732351249
  Hartree energy:                                             247.94136601880902
  Exchange-correlation energy:                                -61.47332483998640
  Hartree-Fock Exchange energy:                               -18.13880667957100
  QM/MM Electrostatic energy:                                   0.57901133216119

  Total energy:                                              -255.36327599150758

  outer SCF iter =    1 RMS gradient =   0.48E-06 energy =       -255.3632759915
  outer SCF loop converged in   1 iterations or    8 steps

  Decoupling Energy:                                               0.0370730234
  Recoupling Energy:                                              -0.0063742875

 ENERGY| Total FORCE_EVAL ( QMMM ) energy [a.u.]:          -1061.235329356720968

 MD| ***************************************************************************
 MD| Step number                                                               2
 MD| Time [fs]                                                          2.000000
 MD| Conserved quantity [hartree]                            -0.842817775115E+03
 MD| ---------------------------------------------------------------------------
 MD|                                          Instantaneous             Averages
 MD| CPU time per MD step [s]                     70.114023           110.505863
 MD| Energy drift per atom [K]           0.112696735648E+02   0.563483678241E+01
 MD| Potential energy [hartree]         -0.106123532936E+04  -0.106059884296E+04
 MD| Total kinetic energy [hartree]      0.218417554242E+03   0.218459241834E+03
 MD| QM kinetic energy [hartree]         0.111577720792E+00   0.116462510741E+00
 MD| Total temperature [K]                       273.820489           273.872751
 MD| QM temperature [K]                          345.425642           360.548121
 MD| ***************************************************************************

  Translating the system in order to center the QM fragment in the QM box.

 Number of electrons:                                                        180
 Number of occupied orbitals:                                                 90
 Number of molecular orbitals:                                                90

 Number of orbital functions:                                               1067
 Number of independent orbital functions:                                   1067

 Extrapolation method: ASPC


 SCF WAVEFUNCTION OPTIMIZATION

  ----------------------------------- OT ---------------------------------------
  Minimizer      : DIIS                : direct inversion
                                         in the iterative subspace
                                         using   7 DIIS vectors
                                         safer DIIS on
  Preconditioner : FULL_ALL            : diagonalization, state selective
  Precond_solver : DEFAULT
  stepsize       :    0.15000000                  energy_gap     :    0.08000000
  eps_taylor     :   0.10000E-15                  max_taylor     :             4
  ----------------------------------- OT ---------------------------------------

  Step     Update method      Time    Convergence         Total energy    Change
  ------------------------------------------------------------------------------
  Decoupling Energy:                                               0.0371231223
  Recoupling Energy:                                              -0.0063748337
     1 OT DIIS     0.15E+00    8.4     0.00057314      -254.8840261167 -2.55E+02
  Decoupling Energy:                                               0.0371264251
  Recoupling Energy:                                              -0.0063748792
     2 OT DIIS     0.15E+00    2.0     0.00022567      -254.8871523043 -3.13E-03
  Decoupling Energy:                                               0.0371270358
  Recoupling Energy:                                              -0.0063748840
     3 OT DIIS     0.15E+00    2.0     0.00008227      -254.8877077448 -5.55E-04
  Decoupling Energy:                                               0.0371223554
  Recoupling Energy:                                              -0.0063748376
     4 OT DIIS     0.15E+00    2.0     0.00002755      -254.8877579508 -5.02E-05
  Decoupling Energy:                                               0.0371233106
  Recoupling Energy:                                              -0.0063748478
     5 OT DIIS     0.15E+00    2.0     0.00001038      -254.8877617575 -3.81E-06
  Decoupling Energy:                                               0.0371231633
  Recoupling Energy:                                              -0.0063748451
     6 OT DIIS     0.15E+00    2.0     0.00000440      -254.8877623442 -5.87E-07
  Decoupling Energy:                                               0.0371230831
  Recoupling Energy:                                              -0.0063748446
     7 OT DIIS     0.15E+00    2.0     0.00000136      -254.8877624348 -9.05E-08
  Decoupling Energy:                                               0.0371230848
  Recoupling Energy:                                              -0.0063748447
     8 OT DIIS     0.15E+00    2.0     0.00000059      -254.8877624456 -1.09E-08

  *** SCF run converged in     8 steps ***


  Electronic density on regular grids:       -180.0000000003       -0.0000000003
  Core density on regular grids:              180.9999999999       -0.0000000001
  Total charge density on r-space grids:        0.9999999996
  Total charge density g-space grids:           0.9999999996

  Overlap energy of the core charge distribution:               0.00005124450348
  Self energy of the core charge distribution:               -615.71576003586028
  Core Hamiltonian energy:                                    191.49125002561851
  Hartree energy:                                             247.90728829356163
  Exchange-correlation energy:                                -61.48094647035095
  Hartree-Fock Exchange energy:                               -18.14140167696633
  QM/MM Electrostatic energy:                                   1.05175617385881

  Total energy:                                              -254.88776244563516

  outer SCF iter =    1 RMS gradient =   0.59E-06 energy =       -254.8877624456
  outer SCF loop converged in   1 iterations or    8 steps

  Decoupling Energy:                                               0.0371230851
  Recoupling Energy:                                              -0.0063748446

 ENERGY| Total FORCE_EVAL ( QMMM ) energy [a.u.]:          -1082.045340795751599

 MD| ***************************************************************************
 MD| Step number                                                               3
 MD| Time [fs]                                                          3.000000
 MD| Conserved quantity [hartree]                            -0.846392351037E+03
 MD| ---------------------------------------------------------------------------
 MD|                                          Instantaneous             Averages
 MD| CPU time per MD step [s]                     70.892731            97.301485
 MD| Energy drift per atom [K]           0.454778047590E+01   0.527248468024E+01
 MD| Potential energy [hartree]         -0.108204534080E+04  -0.106774767557E+04
 MD| Total kinetic energy [hartree]      0.235652989759E+03   0.224190491142E+03
 MD| QM kinetic energy [hartree]         0.117355560152E+00   0.116760193878E+00
 MD| Total temperature [K]                       295.427797           281.057767
 MD| QM temperature [K]                          363.312850           361.469697
 MD| ***************************************************************************

  Translating the system in order to center the QM fragment in the QM box.

 Number of electrons:                                                        180
 Number of occupied orbitals:                                                 90
 Number of molecular orbitals:                                                90

 Number of orbital functions:                                               1067
 Number of independent orbital functions:                                   1067

 Extrapolation method: ASPC


 SCF WAVEFUNCTION OPTIMIZATION

  ----------------------------------- OT ---------------------------------------
  Minimizer      : DIIS                : direct inversion
                                         in the iterative subspace
                                         using   7 DIIS vectors
                                         safer DIIS on
  Preconditioner : FULL_ALL            : diagonalization, state selective
  Precond_solver : DEFAULT
  stepsize       :    0.15000000                  energy_gap     :    0.08000000
  eps_taylor     :   0.10000E-15                  max_taylor     :             4
  ----------------------------------- OT ---------------------------------------

  Step     Update method      Time    Convergence         Total energy    Change
  ------------------------------------------------------------------------------
  Decoupling Energy:                                               0.0371655783
  Recoupling Energy:                                              -0.0063753294
     1 OT DIIS     0.15E+00    8.4     0.00026671      -254.3373017729 -2.54E+02
  Decoupling Energy:                                               0.0371741416
  Recoupling Energy:                                              -0.0063754087
     2 OT DIIS     0.15E+00    2.0     0.00010694      -254.3379928391 -6.91E-04
  Decoupling Energy:                                               0.0371693079
  Recoupling Energy:                                              -0.0063753589
     3 OT DIIS     0.15E+00    2.0     0.00003982      -254.3381211216 -1.28E-04
  Decoupling Energy:                                               0.0371714051
  Recoupling Energy:                                              -0.0063753805
     4 OT DIIS     0.15E+00    2.0     0.00001257      -254.3381309629 -9.84E-06
  Decoupling Energy:                                               0.0371702772
  Recoupling Energy:                                              -0.0063753695
     5 OT DIIS     0.15E+00    2.0     0.00000533      -254.3381317941 -8.31E-07
  Decoupling Energy:                                               0.0371705285
  Recoupling Energy:                                              -0.0063753714
     6 OT DIIS     0.15E+00    2.0     0.00000187      -254.3381319293 -1.35E-07
  Decoupling Energy:                                               0.0371705388
  Recoupling Energy:                                              -0.0063753717
     7 OT DIIS     0.15E+00    2.0     0.00000064      -254.3381319477 -1.84E-08

  *** SCF run converged in     7 steps ***


  Electronic density on regular grids:       -179.9999999999        0.0000000001
  Core density on regular grids:              180.9999999999       -0.0000000001
  Total charge density on r-space grids:        1.0000000000
  Total charge density g-space grids:           1.0000000000

  Overlap energy of the core charge distribution:               0.00002358452396
  Self energy of the core charge distribution:               -615.71576003586028
  Core Hamiltonian energy:                                    191.34733386685713
  Hartree energy:                                             247.97609078110531
  Exchange-correlation energy:                                -61.44937161461230
  Hartree-Fock Exchange energy:                               -18.13041938698161
  QM/MM Electrostatic energy:                                   1.63397085729878

  Total energy:                                              -254.33813194766896

  outer SCF iter =    1 RMS gradient =   0.64E-06 energy =       -254.3381319477
  outer SCF loop converged in   1 iterations or    7 steps

  Decoupling Energy:                                               0.0371704718
  Recoupling Energy:                                              -0.0063753710

 ENERGY| Total FORCE_EVAL ( QMMM ) energy [a.u.]:          -1079.714053587487115

 MD| ***************************************************************************
 MD| Step number                                                               4
 MD| Time [fs]                                                          4.000000
 MD| Conserved quantity [hartree]                            -0.842113597810E+03
 MD| ---------------------------------------------------------------------------
 MD|                                          Instantaneous             Averages
 MD| CPU time per MD step [s]                     68.206104            90.027640
 MD| Energy drift per atom [K]           0.125938598922E+02   0.710282848322E+01
 MD| Potential energy [hartree]         -0.107971405359E+04  -0.107073927008E+04
 MD| Total kinetic energy [hartree]      0.237600455778E+03   0.227542982301E+03
 MD| QM kinetic energy [hartree]         0.148327682012E+00   0.124652065911E+00
 MD| Total temperature [K]                       297.869250           285.260637
 MD| QM temperature [K]                          459.197270           385.901590
 MD| ***************************************************************************

  Translating the system in order to center the QM fragment in the QM box.

 Number of electrons:                                                        180
 Number of occupied orbitals:                                                 90
 Number of molecular orbitals:                                                90

 Number of orbital functions:                                               1067
 Number of independent orbital functions:                                   1067

 Extrapolation method: ASPC


 SCF WAVEFUNCTION OPTIMIZATION

  ----------------------------------- OT ---------------------------------------
  Minimizer      : DIIS                : direct inversion
                                         in the iterative subspace
                                         using   7 DIIS vectors
                                         safer DIIS on
  Preconditioner : FULL_ALL            : diagonalization, state selective
  Precond_solver : DEFAULT
  stepsize       :    0.15000000                  energy_gap     :    0.08000000
  eps_taylor     :   0.10000E-15                  max_taylor     :             4
  ----------------------------------- OT ---------------------------------------

  Step     Update method      Time    Convergence         Total energy    Change
  ------------------------------------------------------------------------------
  Decoupling Energy:                                               0.0372099191
  Recoupling Energy:                                              -0.0063758417
     1 OT DIIS     0.15E+00    8.4     0.00032125      -253.7449319617 -2.54E+02
  Decoupling Energy:                                               0.0372073265
  Recoupling Energy:                                              -0.0063758033
     2 OT DIIS     0.15E+00    2.0     0.00013152      -253.7458490171 -9.17E-04
  Decoupling Energy:                                               0.0372091904
  Recoupling Energy:                                              -0.0063758196
     3 OT DIIS     0.15E+00    2.0     0.00006208      -253.7460077114 -1.59E-04
  Decoupling Energy:                                               0.0372089056
  Recoupling Energy:                                              -0.0063758164
     4 OT DIIS     0.15E+00    2.0     0.00002396      -253.7460387247 -3.10E-05
  Decoupling Energy:                                               0.0372096076
  Recoupling Energy:                                              -0.0063758218
     5 OT DIIS     0.15E+00    2.0     0.00000520      -253.7460411864 -2.46E-06
  Decoupling Energy:                                               0.0372092908
  Recoupling Energy:                                              -0.0063758192
     6 OT DIIS     0.15E+00    2.0     0.00000248      -253.7460413289 -1.42E-07
  Decoupling Energy:                                               0.0372093017
  Recoupling Energy:                                              -0.0063758191
     7 OT DIIS     0.15E+00    2.0     0.00000089      -253.7460413602 -3.13E-08

  *** SCF run converged in     7 steps ***


  Electronic density on regular grids:       -180.0000000000       -0.0000000000
  Core density on regular grids:              180.9999999999       -0.0000000001
  Total charge density on r-space grids:        0.9999999998
  Total charge density g-space grids:           0.9999999998

  Overlap energy of the core charge distribution:               0.00001841792371
  Self energy of the core charge distribution:               -615.71576003586028
  Core Hamiltonian energy:                                    191.22475768602649
  Hartree energy:                                             248.04794149035973
  Exchange-correlation energy:                                -61.41799377167394
  Hartree-Fock Exchange energy:                               -18.11952384926382
  QM/MM Electrostatic energy:                                   2.23451870230071

  Total energy:                                              -253.74604136018746

  outer SCF iter =    1 RMS gradient =   0.89E-06 energy =       -253.7460413602
  outer SCF loop converged in   1 iterations or    7 steps

  Decoupling Energy:                                               0.0372093256
  Recoupling Energy:                                              -0.0063758193

 ENERGY| Total FORCE_EVAL ( QMMM ) energy [a.u.]:          -1094.307010773404727

 MD| ***************************************************************************
 MD| Step number                                                               5
 MD| Time [fs]                                                          5.000000
 MD| Conserved quantity [hartree]                            -0.848389415978E+03
 MD| ---------------------------------------------------------------------------
 MD|                                          Instantaneous             Averages
 MD| CPU time per MD step [s]                     68.999584            85.822029
 MD| Energy drift per atom [K]           0.792354008130E+00   0.584073358820E+01
 MD| Potential energy [hartree]         -0.109430701077E+04  -0.107545281822E+04
 MD| Total kinetic energy [hartree]      0.245917594795E+03   0.231217904800E+03
 MD| QM kinetic energy [hartree]         0.157564616926E+00   0.131234576114E+00
 MD| Total temperature [K]                       308.296082           289.867726
 MD| QM temperature [K]                          487.793249           406.279922
 MD| ***************************************************************************

  Translating the system in order to center the QM fragment in the QM box.

 Number of electrons:                                                        180
 Number of occupied orbitals:                                                 90
 Number of molecular orbitals:                                                90

 Number of orbital functions:                                               1067
 Number of independent orbital functions:                                   1067

 Extrapolation method: ASPC


 SCF WAVEFUNCTION OPTIMIZATION

  ----------------------------------- OT ---------------------------------------
  Minimizer      : DIIS                : direct inversion
                                         in the iterative subspace
                                         using   7 DIIS vectors
                                         safer DIIS on
  Preconditioner : FULL_ALL            : diagonalization, state selective
  Precond_solver : DEFAULT
  stepsize       :    0.15000000                  energy_gap     :    0.08000000
  eps_taylor     :   0.10000E-15                  max_taylor     :             4
  ----------------------------------- OT ---------------------------------------

  Step     Update method      Time    Convergence         Total energy    Change
  ------------------------------------------------------------------------------
  Decoupling Energy:                                               0.0372442927
  Recoupling Energy:                                              -0.0063762203
     1 OT DIIS     0.15E+00    8.4     0.00048955      -253.1925160278 -2.53E+02
  Decoupling Energy:                                               0.0372419306
  Recoupling Energy:                                              -0.0063762264
     2 OT DIIS     0.15E+00    2.0     0.00019219      -253.1946644244 -2.15E-03
  Decoupling Energy:                                               0.0372397715
  Recoupling Energy:                                              -0.0063761962
     3 OT DIIS     0.15E+00    2.0     0.00008083      -253.1950216949 -3.57E-04
  Decoupling Energy:                                               0.0372398019
  Recoupling Energy:                                              -0.0063761980
     4 OT DIIS     0.15E+00    2.0     0.00002264      -253.1950806250 -5.89E-05
  Decoupling Energy:                                               0.0372388212
  Recoupling Energy:                                              -0.0063761873
     5 OT DIIS     0.15E+00    2.0     0.00000844      -253.1950832192 -2.59E-06
  Decoupling Energy:                                               0.0372394786
  Recoupling Energy:                                              -0.0063761928
     6 OT DIIS     0.15E+00    2.0     0.00000290      -253.1950835808 -3.62E-07
  Decoupling Energy:                                               0.0372392306
  Recoupling Energy:                                              -0.0063761905
     7 OT DIIS     0.15E+00    2.0     0.00000087      -253.1950836221 -4.13E-08

  *** SCF run converged in     7 steps ***


  Electronic density on regular grids:       -180.0000000000       -0.0000000000
  Core density on regular grids:              180.9999999999       -0.0000000001
  Total charge density on r-space grids:        0.9999999998
  Total charge density g-space grids:           0.9999999998

  Overlap energy of the core charge distribution:               0.00001843305928
  Self energy of the core charge distribution:               -615.71576003586028
  Core Hamiltonian energy:                                    191.21898834241506
  Hartree energy:                                             248.05850546285578
  Exchange-correlation energy:                                -61.40903491701506
  Hartree-Fock Exchange energy:                               -18.11645591770091
  QM/MM Electrostatic energy:                                   2.76865501014065

  Total energy:                                              -253.19508362210550

  outer SCF iter =    1 RMS gradient =   0.87E-06 energy =       -253.1950836221
  outer SCF loop converged in   1 iterations or    7 steps

  Decoupling Energy:                                               0.0372392230
  Recoupling Energy:                                              -0.0063761903

 ENERGY| Total FORCE_EVAL ( QMMM ) energy [a.u.]:          -1057.339963889144428

 MD| ***************************************************************************
 MD| Step number                                                               6
 MD| Time [fs]                                                          6.000000
 MD| Conserved quantity [hartree]                            -0.842900323382E+03
 MD| ---------------------------------------------------------------------------
 MD|                                          Instantaneous             Averages
 MD| CPU time per MD step [s]                     68.551032            82.943529
 MD| Energy drift per atom [K]           0.111144437863E+02   0.671968528789E+01
 MD| Potential energy [hartree]         -0.105733996389E+04  -0.107243400916E+04
 MD| Total kinetic energy [hartree]      0.214439640507E+03   0.228421527418E+03
 MD| QM kinetic energy [hartree]         0.141132185061E+00   0.132884177605E+00
 MD| Total temperature [K]                       268.833554           286.362031
 MD| QM temperature [K]                          436.921236           411.386808
 MD| ***************************************************************************

 -------------------------------------------------------------------------------
 -                                                                             -
 -                                DBCSR STATISTICS                             -
 -                                                                             -
 -------------------------------------------------------------------------------
 COUNTER                                    TOTAL       BLAS       SMM       ACC
 flops     9 x    26 x    26              2810808     100.0%      0.0%      0.0%
 flops    22 x    26 x    26              7287280     100.0%      0.0%      0.0%
 flops     9 x    32 x    32              8515584     100.0%      0.0%      0.0%
 flops    31 x    26 x    26             11735360     100.0%      0.0%      0.0%
 flops    26 x    26 x    26             13709280     100.0%      0.0%      0.0%
 flops    22 x    32 x    32             22077440     100.0%      0.0%      0.0%
 flops    31 x    26 x    32             28887040     100.0%      0.0%      0.0%
 flops    31 x    32 x    26             28887040     100.0%      0.0%      0.0%
 flops    26 x    26 x    32             33745920     100.0%      0.0%      0.0%
 flops    26 x    32 x    26             33745920     100.0%      0.0%      0.0%
 flops    32 x    26 x    26             33745920     100.0%      0.0%      0.0%
 flops    71 x    26 x    26             53755520     100.0%      0.0%      0.0%
 flops    31 x    26 x   133             54027792     100.0%      0.0%      0.0%
 flops    31 x    26 x   146             59308704     100.0%      0.0%      0.0%
 flops    53 x    26 x    26             60191040     100.0%      0.0%      0.0%
 flops    93 x    26 x    26             70412160     100.0%      0.0%      0.0%
 flops    31 x    32 x    32             71106560     100.0%      0.0%      0.0%
 flops    31 x    26 x   124             75557664     100.0%      0.0%      0.0%
 flops    32 x    32 x    26             83066880     100.0%      0.0%      0.0%
 flops    26 x    32 x    32             83066880     100.0%      0.0%      0.0%
 flops    32 x    26 x    32             83066880     100.0%      0.0%      0.0%
 flops    26 x    26 x   133             83074992     100.0%      0.0%      0.0%
 flops    26 x    26 x   146             91195104     100.0%      0.0%      0.0%
 flops    26 x    26 x   124            116180064     100.0%      0.0%      0.0%
 flops    71 x    32 x    26            132321280     100.0%      0.0%      0.0%
 flops    71 x    26 x    32            132321280     100.0%      0.0%      0.0%
 flops    31 x    32 x   133            132991488     100.0%      0.0%      0.0%
 flops    62 x    26 x    26            140824320     100.0%      0.0%      0.0%
 flops    31 x    32 x   146            145990656     100.0%      0.0%      0.0%
 flops    53 x    32 x    26            148162560     100.0%      0.0%      0.0%
 flops    53 x    26 x    32            148162560     100.0%      0.0%      0.0%
 flops     9 x     9 x    26            165405240     100.0%      0.0%      0.0%
 flops    93 x    26 x    32            173322240     100.0%      0.0%      0.0%
 flops    93 x    32 x    26            173322240     100.0%      0.0%      0.0%
 flops    31 x    32 x   124            185988096     100.0%      0.0%      0.0%
 flops    32 x    32 x    32            204472320     100.0%      0.0%      0.0%
 flops    26 x    32 x   133            204492288     100.0%      0.0%      0.0%
 flops    32 x    26 x   133            204492288     100.0%      0.0%      0.0%
 flops    26 x    32 x   146            224480256     100.0%      0.0%      0.0%
 flops    32 x    26 x   146            224480256     100.0%      0.0%      0.0%
 flops    71 x    26 x   133            247482144     100.0%      0.0%      0.0%
 flops    71 x    26 x   146            271672128     100.0%      0.0%      0.0%
 flops    53 x    26 x   133            277110288     100.0%      0.0%      0.0%
 flops    26 x    32 x   124            285981696     100.0%      0.0%      0.0%
 flops    32 x    26 x   124            285981696     100.0%      0.0%      0.0%
 flops    53 x    26 x   146            304196256     100.0%      0.0%      0.0%
 flops    93 x    26 x   133            324166752     100.0%      0.0%      0.0%
 flops    71 x    32 x    32            325713920     100.0%      0.0%      0.0%
 flops    71 x    26 x   124            346102848     100.0%      0.0%      0.0%
 flops    62 x    32 x    26            346644480     100.0%      0.0%      0.0%
 flops    62 x    26 x    32            346644480     100.0%      0.0%      0.0%
 flops    93 x    26 x   146            355852224     100.0%      0.0%      0.0%
 flops    53 x    32 x    32            364707840     100.0%      0.0%      0.0%
 flops    53 x    26 x   124            387537696     100.0%      0.0%      0.0%
 flops     9 x     9 x    32            407151360     100.0%      0.0%      0.0%
 flops    22 x     9 x    26            415855440     100.0%      0.0%      0.0%
 flops     9 x    22 x    26            416576160     100.0%      0.0%      0.0%
 flops    93 x    32 x    32            426639360     100.0%      0.0%      0.0%
 flops    93 x    26 x   124            453345984     100.0%      0.0%      0.0%
 flops    32 x    32 x   133            503365632     100.0%      0.0%      0.0%
 flops    32 x    32 x   146            552566784     100.0%      0.0%      0.0%
 flops    71 x    32 x   133            609186816     100.0%      0.0%      0.0%
 flops    62 x    26 x   133            648333504     100.0%      0.0%      0.0%
 flops    71 x    32 x   146            668731392     100.0%      0.0%      0.0%
 flops    53 x    32 x   133            682117632     100.0%      0.0%      0.0%
 flops    32 x    32 x   124            703954944     100.0%      0.0%      0.0%
 flops    62 x    26 x   146            711704448     100.0%      0.0%      0.0%
 flops    53 x    32 x   146            748790784     100.0%      0.0%      0.0%
 flops    93 x    32 x   133            797948928     100.0%      0.0%      0.0%
 flops     9 x    26 x     9            802701900     100.0%      0.0%      0.0%
 flops    71 x    32 x   124            851945472     100.0%      0.0%      0.0%
 flops    62 x    32 x    32            853278720     100.0%      0.0%      0.0%
 flops    93 x    32 x   146            875943936     100.0%      0.0%      0.0%
 flops    62 x    26 x   124            906691968     100.0%      0.0%      0.0%
 flops    53 x    32 x   124            953938944     100.0%      0.0%      0.0%
 flops    22 x     9 x    32           1023644160     100.0%      0.0%      0.0%
 flops     9 x    22 x    32           1025418240     100.0%      0.0%      0.0%
 flops    22 x    22 x    26           1109908800     100.0%      0.0%      0.0%
 flops    93 x    32 x   124           1115928576     100.0%      0.0%      0.0%
 flops    62 x    32 x   133           1595897856     100.0%      0.0%      0.0%
 flops    62 x    32 x   146           1751887872     100.0%      0.0%      0.0%
 flops     9 x    32 x     9           1975881600     100.0%      0.0%      0.0%
 flops     9 x    26 x    22           2081079000     100.0%      0.0%      0.0%
 flops    22 x    26 x     9           2081079000     100.0%      0.0%      0.0%
 flops    62 x    32 x   124           2231857152     100.0%      0.0%      0.0%
 flops    22 x    22 x    32           2732083200     100.0%      0.0%      0.0%
 flops    22 x    32 x     9           5122656000     100.0%      0.0%      0.0%
 flops     9 x    32 x    22           5122656000     100.0%      0.0%      0.0%
 flops    22 x    26 x    22           5395390000     100.0%      0.0%      0.0%
 flops    22 x    32 x    22          13280960000     100.0%      0.0%      0.0%
 flops inhomo. stacks                 10313412480     100.0%      0.0%      0.0%
 flops total                        80.370692E+09     100.0%      0.0%      0.0%
 flops max/rank                      6.935623E+09     100.0%      0.0%      0.0%
 matmuls inhomo. stacks                     18459     100.0%      0.0%      0.0%
 matmuls total                            3037554     100.0%      0.0%      0.0%
 number of processed stacks                489498     100.0%      0.0%      0.0%
 average stack size                                     6.2       0.0       0.0
 marketing flops                    85.671830E+09
 -------------------------------------------------------------------------------
 # multiplications                           1286
 max memory usage/rank               2.876805E+09
 # max total images/rank                        2
 # max 3D layers                                1
 # MPI messages exchanged                  534976
 MPI messages size (bytes):
  total size                        24.047462E+09
  min size                           0.000000E+00
  max size                         315.360000E+03
  average size                      44.950543E+03
 MPI breakdown and total messages size (bytes):
             size <=      128              312689                        0
       128 < size <=     8192               42723                307609632
      8192 < size <=    32768               47082               1385410320
     32768 < size <=   131072               65058               3164106960
    131072 < size <=  4194304               67424              19190370584
   4194304 < size <= 16777216                   0                        0
  16777216 < size                               0                        0
 -------------------------------------------------------------------------------

 *** WARNING in dbcsr_mm.F:294 :: Using a non-square number of MPI ranks ***
 *** might lead to poor performance. Used ranks: 32 Suggested: 36 64     ***

 -------------------------------------------------------------------------------
 -                                                                             -
 -                      DBCSR MESSAGE PASSING PERFORMANCE                      -
 -                                                                             -
 -------------------------------------------------------------------------------
 ROUTINE             CALLS      AVE VOLUME [Bytes]
 MP_Bcast               91                     12.
 MP_Allreduce         6930                      9.
 MP_Alltoall          5344                  14385.
 MP_ISend            39756                  23567.
 MP_IRecv            39294                  22599.
 -------------------------------------------------------------------------------

 -------------------------------------------------------------------------------
 -                                                                             -
 -                                GRID STATISTICS                              -
 -                                                                             -
 -------------------------------------------------------------------------------
 LP    KERNEL             BACKEND                              COUNT     PERCENT
 2     collocate ortho    REF                                1126269      19.15%
 2     integrate ortho    REF                                1106014      18.80%
 1     collocate ortho    REF                                 943978      16.05%
 1     integrate ortho    REF                                 870340      14.80%
 3     integrate ortho    REF                                 570062       9.69%
 3     collocate ortho    REF                                 500530       8.51%
 0     collocate ortho    REF                                 281245       4.78%
 0     integrate ortho    REF                                 249988       4.25%
 4     integrate ortho    REF                                 121240       2.06%
 4     collocate ortho    REF                                  73823       1.26%
 0     collocate general  REF                                  15232       0.26%
 1     integrate general  REF                                  15232       0.26%
 5     integrate ortho    REF                                   8201       0.14%
 -------------------------------------------------------------------------------

 MEMORY| Estimated peak process memory [MiB]                                2798

 -------------------------------------------------------------------------------
 -                                                                             -
 -                         MESSAGE PASSING PERFORMANCE                         -
 -                                                                             -
 -------------------------------------------------------------------------------

 ROUTINE             CALLS      AVE VOLUME [Bytes]
 MP_Group                8
 MP_Bcast             6942               10565475.
 MP_Allreduce         2477                1659270.
 MP_Sync               437
 MP_Alltoall          1344               35661819.
 MP_ISendRecv        12803                 111553.
 MP_Wait             20454
 MP_comm_split          21
 MP_ISend             6475                 861828.
 MP_IRecv             6468                 861818.
 MP_Recv                49                 102432.
 -------------------------------------------------------------------------------


 -------------------------------------------------------------------------------
 -                                                                             -
 -                           R E F E R E N C E S                               -
 -                                                                             -
 -------------------------------------------------------------------------------
 
 CP2K version 8.2, the CP2K developers group (2021).
 CP2K is freely available from https://www.cp2k.org/ .

 Kuehne,Thomas D.; Iannuzzi,Marcella; Del Ben,Mauro;
 Rybkin,Vladimir V.; Seewald,Patrick; Stein,Frederick; Laino,Teodoro;
 Khaliullin,Rustam Z.; Schuett,Ole; Schiffmann,Florian; Golze,Dorothea;
 Wilhelm,Jan; Chulkov,Sergey; Bani-Hashemian,Mohammad Hossein;
 Weber,Valery; Borstnik,Urban; Taillefumier,Mathieu;
 Jakobovits,Alice Shoshana; Lazzaro,Alfio; Pabst,Hans; Mueller,Tiziano;
 Schade,Robert; Guidon,Manuel; Andermatt,Samuel; Holmberg,Nico;
 Schenter,Gregory K.; Hehn,Anna; Bussy,Augustin; Belleflamme,Fabian;
 Tabacchi,Gloria; Gloess,Andreas; Lass,Michael; Bethune,Iain;
 Mundy,Christopher J.; Plessl,Christian; Watkins,Matt;
 VandeVondele,Joost; Krack,Matthias; Hutter,Juerg. 
 The Journal of Chemical Physics, 152 (19), (2020). 
 CP2K: An electronic structure and molecular dynamics software package -
 Quickstep: Efficient and accurate electronic structure calculations.
 https://doi.org/10.1063/5.0007045

 Schuett, Ole; Messmer, Peter; Hutter, Juerg; VandeVondele, Joost. 
 Electronic Structure Calculations on Graphics Processing Units, John
 Wiley & Sons, Ltd, 173-190 (2016). 
 GPU-Accelerated Sparse Matrix-Matrix Multiplication for
 Linear Scaling Density Functional Theory.
 https://doi.org/10.1002/9781118670712.ch8

 Borstnik, U; VandeVondele, J; Weber, V; Hutter, J. 
 PARALLEL COMPUTING, 40 (5-6), 47-58 (2014). 
 Sparse matrix multiplication: The distributed block-compressed sparse
 row library.
 https://doi.org/10.1016/j.parco.2014.03.012

 Hutter, J; Iannuzzi, M; Schiffmann, F; VandeVondele, J. 
 WIREs Comput Mol Sci., 4 (1), 15-25 (2014). 
 CP2K: atomistic simulations of condensed matter systems.
 https://doi.org/10.1002/wcms.1159

 Marek, A; Blum, V; Johanni, R; Havu, V; Lang, B; Auckenthaler, T;
 Heinecke, A; Bungartz, H; Lederer, H. 
 Journal of Physics: Condensed Matter, 26 (21), (2014). 
 The ELPA library: scalable parallel eigenvalue solutions for
 electronic structure
 theory and computational science.
 https://doi.org/10.1088/0953-8984/26/21/213201

 Guidon, M; Hutter, J; VandeVondele, J. 
 JOURNAL OF CHEMICAL THEORY AND COMPUTATION, 5 (11), 3010-3021 (2009). 
 Robust Periodic Hartree-Fock Exchange for Large-Scale Simulations Using
 Gaussian Basis Sets.
 https://doi.org/10.1021/ct900494g

 Guidon, M; Schiffmann, F; Hutter, J; VandeVondele, J. 
 JOURNAL OF CHEMICAL PHYSICS, 128 (21), 214104 (2008). 
 Ab initio molecular dynamics using hybrid density functionals.
 https://doi.org/10.1063/1.2931945

 Kuhne, TD; Krack, M; Mohamed, FR; Parrinello, M. 
 PHYSICAL REVIEW LETTERS, 98 (6), 066401 (2007). 
 Efficient and accurate Car-Parrinello-like approach to
 Born-Oppenheimer molecular dynamics.
 https://doi.org/10.1103/PhysRevLett.98.066401

 Laino, T; Mohamed, F; Laio, A; Parrinello, M. 
 JOURNAL OF CHEMICAL THEORY AND COMPUTATION, 2 (5), 1370-1378 (2006). 
 An efficient linear-scaling electrostatic coupling for treating
 periodic boundary conditions in QM/MM simulations.
 https://doi.org/10.1021/ct6001169

 Laino, T; Mohamed, F; Laio, A; Parrinello, M. 
 JOURNAL OF CHEMICAL THEORY AND COMPUTATION, 1 (6), 1176-1184 (2005). 
 An efficient real space multigrid QM/MM electrostatic coupling.
 https://doi.org/10.1021/ct050123f

 Krack, M. 
 THEORETICAL CHEMISTRY ACCOUNTS, 114 (1-3), 145-152 (2005). 
 Pseudopotentials for H to Kr optimized for gradient-corrected
 exchange-correlation functionals.
 https://doi.org/10.1007/s00214-005-0655-y

 VandeVondele, J; Krack, M; Mohamed, F; Parrinello, M; Chassaing, T;
 Hutter, J. COMPUTER PHYSICS COMMUNICATIONS, 167 (2), 103-128 (2005). 
 QUICKSTEP: Fast and accurate density functional calculations using a
 mixed Gaussian and plane waves approach.
 https://doi.org/10.1016/j.cpc.2004.12.014

 Frigo, M; Johnson, SG. 
 PROCEEDINGS OF THE IEEE, 93 (2), 216-231 (2005). 
 The design and implementation of FFTW3.
 https://doi.org/10.1109/JPROC.2004.840301

 Kolafa, J. 
 JOURNAL OF COMPUTATIONAL CHEMISTRY, 25 (3), 335-342 (2004). 
 Time-reversible always stable predictor-corrector method for molecular dynamics of polarizable molecules.
 https://doi.org/10.1002/jcc.10385

 VandeVondele, J; Hutter, J. 
 JOURNAL OF CHEMICAL PHYSICS, 118 (10), 4365-4369 (2003). 
 An efficient orbital transformation method for electronic structure
 calculations.
 https://doi.org/10.1063/1.1543154

 Hartwigsen, C; Goedecker, S; Hutter, J. 
 PHYSICAL REVIEW B, 58 (7), 3641-3662 (1998). 
 Relativistic separable dual-space Gaussian pseudopotentials from H to Rn.
 https://doi.org/10.1103/PhysRevB.58.3641

 Lippert, G; Hutter, J; Parrinello, M. 
 MOLECULAR PHYSICS, 92 (3), 477-487 (1997). 
 A hybrid Gaussian and plane wave density functional scheme.
 https://doi.org/10.1080/002689797170220

 Perdew, JP; Burke, K; Ernzerhof, M. 
 PHYSICAL REVIEW LETTERS, 77 (18), 3865-3868 (1996). 
 Generalized gradient approximation made simple.
 https://doi.org/10.1103/PhysRevLett.77.3865

 Goedecker, S; Teter, M; Hutter, J. 
 PHYSICAL REVIEW B, 54 (3), 1703-1710 (1996). 
 Separable dual-space Gaussian pseudopotentials.
 https://doi.org/10.1103/PhysRevB.54.1703

 ESSMANN, U; PERERA, L; BERKOWITZ, ML; DARDEN, T; LEE, H; PEDERSEN, LG. 
 JOURNAL OF CHEMICAL PHYSICS, 103 (19), 8577-8593 (1995). 
 A SMOOTH PARTICLE MESH EWALD METHOD.
 https://doi.org/10.1063/1.470117

 BLOCHL, PE. 
 JOURNAL OF CHEMICAL PHYSICS, 103 (17), 7422-7428 (1995). 
 ELECTROSTATIC DECOUPLING OF PERIODIC IMAGES OF PLANE-WAVE-EXPANDED
 DENSITIES AND DERIVED ATOMIC POINT CHARGES.
 https://doi.org/10.1063/1.470314


 -------------------------------------------------------------------------------
 -                                                                             -
 -                                T I M I N G                                  -
 -                                                                             -
 -------------------------------------------------------------------------------
 SUBROUTINE                       CALLS  ASD         SELF TIME        TOTAL TIME
                                MAXIMUM       AVERAGE  MAXIMUM  AVERAGE  MAXIMUM
 CP2K                                 1  1.0    0.197    0.206  540.566  540.567
 qs_mol_dyn_low                       1  2.0    0.008    0.008  498.540  500.117
 velocity_verlet                      6  3.0    0.026    0.031  418.969  419.055
 qs_forces                            7  3.9    0.001    0.001  313.967  313.967
 rebuild_ks_matrix                   63  8.5    0.000    0.000  288.855  288.866
 qs_ks_build_kohn_sham_matrix        63  9.5    0.012    0.014  288.855  288.866
 hfx_ks_matrix                       63 10.5    0.002    0.003  235.558  235.602
 qs_energies                          7  4.9    0.000    0.001  165.241  165.242
 scf_env_do_scf                       7  5.9    0.000    0.001  161.241  161.242
 qs_ks_update_qs_env_forces           7  4.9    0.000    0.000  148.589  148.590
 qs_ks_update_qs_env                 63  7.8    0.001    0.001  140.274  140.284
 derivatives_four_center              7  8.9    0.021    0.281  136.411  136.412
 derivatives_four_center_main         7  9.9    0.368    1.060  135.927  135.929
 derivatives_four_center_bin        515 10.9  134.552  135.719  134.552  135.719
 scf_env_do_scf_inner_loop           56  6.8    0.001    0.003   99.763   99.774
 integrate_four_center               63 11.5    3.104    3.484   99.137   99.181
 qmmm_forces                          7  3.9    0.025    0.026   96.079   96.079
 qmmm_forces_with_gaussian            7  4.9    1.252    1.265   94.317   95.258
 integrate_four_center_main          63 12.5    0.241    0.407   92.250   92.710
 integrate_four_center_bin         4074 13.5   92.009   92.489   92.009   92.489
 qmmm_el_coupling                     7  3.9    0.000    0.000   79.791   80.196
 qmmm_elec_with_gaussian              7  4.9    1.108    1.130   79.779   80.186
 qmmm_force_with_gaussian_low         7  5.9    0.000    0.000   62.386   62.791
 init_scf_loop                        7  6.9    0.000    0.000   61.464   61.464
 qmmm_elec_with_gaussian_low          7  5.9    0.000    0.000   51.467   52.610
 qmmm_forces_gaussian_low_R           7  6.9    0.000    0.000   51.651   52.157
 qmmm_forces_with_gaussian_LG         7  7.9   51.651   52.157   51.651   52.157
 pw_transfer                       1337 12.0    0.133    0.149   41.422   43.584
 fft_wrap_pw1pw2                   1113 13.1    0.016    0.017   40.395   42.544
 fft_wrap_pw1pw2_200                707 14.4    4.427    4.662   39.724   41.883
 qmmm_env_create                      1  2.0    7.456    7.498   40.210   40.210
 qmmm_elec_gaussian_low_R             7  6.9    0.000    0.000   38.566   39.724
 qmmm_elec_with_gaussian_LG           7  7.9   38.566   39.724   38.566   39.724
 qs_vxc_create                       63 10.5    0.001    0.002   34.248   34.253
 xc_vxc_pw_create                    63 11.5    0.635    0.751   34.247   34.251
 fft3d_ps                          1113 15.1   17.749   18.209   29.858   32.056
 fist_init                            1  3.0    0.000    0.000   29.521   29.521
 pw_integral_ab                    2967  7.5   25.001   25.931   25.126   26.003
 pw_restrict_s3                      21  5.9    4.409    4.739   24.363   25.423
 qs_rho_update_rho                   63  7.9    0.001    0.001   20.853   20.860
 calculate_rho_elec                  63  8.9    0.232    0.234   20.852   20.859
 qmmm_elec_with_gaussian:spline       7  5.9    0.000    0.000   18.245   18.642
 pw_prolongate_s3                    21  6.9    3.268    3.392   18.245   18.642
 mp_sum_dm3                          38  5.7   15.989   17.377   15.989   17.377
 xc_rho_set_and_dset_create          63 12.5    0.315    0.337   15.958   17.341
 density_rs2pw                       63  9.9    0.003    0.004   14.682   17.178
 force_field_control                  1  4.0    0.000    0.000   15.829   16.002
 rdparm_amber_8                       2  6.5   12.765   12.922   14.806   14.942
 topology_control                     1  4.0    0.000    0.000   13.588   13.715
 rs_pw_transfer                     546 11.8    0.011    0.012   11.024   13.508
 qmmm_elec_gaussian_low_G             7  6.9   12.901   13.247   12.901   13.247
 qmmm_forces_gaussian_low_G           7  6.9   10.735   10.890   10.735   10.890
 -------------------------------------------------------------------------------

 The number of warnings for this run is : 1
 
 -------------------------------------------------------------------------------
  **** **** ******  **  PROGRAM ENDED AT                 2021-08-31 18:10:56.972
 ***** ** ***  *** **   PROGRAM RAN ON                                 nid001757
 **    ****   ******    PROGRAM RAN BY                                     hjbio
 ***** **    ** ** **   PROGRAM PROCESS ID                                124272
  **** **  *******  **  PROGRAM STOPPED IN /lus/cls01095/work/d118/d118/hjbio/qm
                                           mm-benchmarking/archer2/CPU/cp2kMD/CB
                                           D_PHY-PBE0/6STEPS/1NODES/128CPN/4THRE
                                           ADS
