 DBCSR| CPU Multiplication driver                                           BLAS
 DBCSR| Multrec recursion limit                                              512
 DBCSR| Multiplication stack size                                           1000
 DBCSR| Maximum elements for images                                    UNLIMITED
 DBCSR| Multiplicative factor virtual images                                   1
 DBCSR| Use multiplication densification                                       T
 DBCSR| Multiplication size stacks                                             3
 DBCSR| Use memory pool for CPU allocation                                     F
 DBCSR| Number of 3D layers                                               SINGLE
 DBCSR| Use MPI memory allocation                                              F
 DBCSR| Use RMA algorithm                                                      F
 DBCSR| Use Communication thread                                               T
 DBCSR| Communication thread load                                             83
 DBCSR| MPI: My node id                                                        0
 DBCSR| MPI: Number of nodes                                                  16
 DBCSR| OMP: Current number of threads                                         2
 DBCSR| OMP: Max number of threads                                             2
 DBCSR| Split modifier for TAS multiplication algorithm                  1.0E+00


  **** **** ******  **  PROGRAM STARTED AT               2021-09-06 14:49:55.586
 ***** ** ***  *** **   PROGRAM STARTED ON                             nid001256
 **    ****   ******    PROGRAM STARTED BY                                 hjbio
 ***** **    ** ** **   PROGRAM PROCESS ID                                193005
  **** **  *******  **  PROGRAM STARTED IN /lus/cls01095/work/d118/d118/hjbio/qm
                                           mm-benchmarking/archer2/CPU/cp2kMD/CB
                                           D_PHY-PBE0/6STEPS/1NODES/32CPN/2THREA
                                           DS

 CP2K| version string:                                          CP2K version 8.2
 CP2K| source code revision number:                                  git:310b7ab
 CP2K| cp2kflags: omp libint fftw3 libxc elpa parallel mpi3 scalapack plumed2   
 CP2K| is freely available from                            https://www.cp2k.org/
 CP2K| Program compiled at                          Thu 10 Jun 17:43:51 BST 2021
 CP2K| Program compiled on                                                 uan01
 CP2K| Program compiled for                                              ARCHER2
 CP2K| Data directory path              /work/d118/d118/hjbio/CP2K/cp2k-8.2/data
 CP2K| Input file name                                          CBD_PHY-cp2k.inp

 GLOBAL| Force Environment number                                              1
 GLOBAL| Basis set file name                                           HFX_BASIS
 GLOBAL| Potential file name                                           POTENTIAL
 GLOBAL| MM Potential file name                                     MM_POTENTIAL
 GLOBAL| Coordinate file name                                        CBD_PHY.pdb
 GLOBAL| Method name                                                        CP2K
 GLOBAL| Project name                                               CBD_PHY-PBE0
 GLOBAL| Run type                                                             MD
 GLOBAL| FFT library                                                       FFTW3
 GLOBAL| Diagonalization library                                            ELPA
 GLOBAL| Minimum number of eigenvectors for ELPA usage                        16
 GLOBAL| Orthonormality check for eigenvectors                          DISABLED
 GLOBAL| Matrix multiplication library                                    SCALAP
 GLOBAL| All-to-all communication in single precision                          F
 GLOBAL| FFTs using library dependent lengths                                  F
 GLOBAL| Grid backend                                                       AUTO
 GLOBAL| Global print level                                                  LOW
 GLOBAL| MPI I/O enabled                                                       T
 GLOBAL| Total number of message passing processes                            16
 GLOBAL| Number of threads for this process                                    2
 GLOBAL| This output is from process                                           0
 GLOBAL| CPU model name                          AMD EPYC 7742 64-Core Processor
 GLOBAL| CPUID                                                              1002

 MEMORY| system memory details [Kb]
 MEMORY|                        rank 0           min           max       average
 MEMORY| MemTotal            263568576     263568576     263568576     263568576
 MEMORY| MemFree             248089480     248089480     248089480     248089480
 MEMORY| Buffers                416224        416224        416224        416224
 MEMORY| Cached                4050284       4050284       4050284       4050284
 MEMORY| Slab                  2093204       2093204       2093204       2093204
 MEMORY| SReclaimable           315468        315468        315468        315468
 MEMORY| MemLikelyFree       252871456     252871456     252871456     252871456



                      ************* ******** ***********   
                     ************* **********************  
                     ****     **** ****      ***********   
                     ******** ****  *******     ****       
                     *******  ****   *******   ****        
                     ****     ****       ****  ****        
                     ****     **** **********  ****        
                      ****     **** ********    ****       
                     FRONTIERS IN SIMULATION TECHNOLOGY    
                                                           
                        C.J. Mundy, S. Balasubramanian,    
                     Ken Bagchi, J. Hutter, Ari Seitsonen  
                      IFW Kuo, T. Laino, J. VandeVondele   
                                 Version 1.0               

                                                           


 EWALD| Summation is done by:                                               SPME
 EWALD| Alpha parameter [       ANGSTROM^-1]                              0.4000
 EWALD| Real Space Cutoff [          ANGSTROM]                            8.4348
 EWALD| G-space max. Miller index                         80        80        80
 EWALD| Spline interpolation order                                             6

 FORCEFIELD| WARNING: A non Critical ForceField parameter is missing! CP2K GOES!
 FORCEFIELD| Non critical parameters are:Urey-Bradley,Torsions,Impropers, Opbends and 1-4
 FORCEFIELD| All missing parameters will not contribute to the potential energy!
 FORCEFIELD| Activate the print key FF_INFO to have a list of missing parameters

 CHARGE_INFO| Total Charge of the Classical System:                    -0.825808

 SPLINE_INFO| Generating 101926 splines for NONBONDED14 interactions 
              Due to 451 different atomic kinds
  ...10192  ...20384  ...30576  ...40768  ...50960  ...61152  ...71344  ...81536  ...91728  ...101920
 SPLINE_INFO| Number of unique splines computed:            301
 SPLINE_INFO| Done

 SPLINE_INFO| Generating 101926 splines for NONBONDED interactions 
              Due to 451 different atomic kinds
  ...10192  ...20384  ...30576  ...40768  ...50960  ...61152  ...71344  ...81536  ...91728  ...101920
 SPLINE_INFO| Number of unique splines computed:            301
 SPLINE_INFO| Done

 *******************************************************************************
 *******************************************************************************
 **                                                                           **
 **     #####                         ##              ##                      **
 **    ##   ##            ##          ##              ##                      **
 **   ##     ##                       ##            ######                    **
 **   ##     ##  ##   ##  ##   #####  ##  ##   ####   ##    #####    #####    **
 **   ##     ##  ##   ##  ##  ##      ## ##   ##      ##   ##   ##  ##   ##   **
 **   ##  ## ##  ##   ##  ##  ##      ####     ###    ##   ######   ######    **
 **    ##  ###   ##   ##  ##  ##      ## ##      ##   ##   ##       ##        **
 **     #######   #####   ##   #####  ##  ##  ####    ##    #####   ##        **
 **           ##                                                    ##        **
 **                                                                           **
 **                                                ... make the atoms dance   **
 **                                                                           **
 **            Copyright (C) by CP2K developers group (2000-2021)             **
 **                      J. Chem. Phys. 152, 194103 (2020)                    **
 **                                                                           **
 *******************************************************************************


 TOTAL NUMBERS AND MAXIMUM NUMBERS

  Total number of            - Atomic kinds:                                   5
                             - Atoms:                                         68
                             - Shell sets:                                   340
                             - Shells:                                       445
                             - Primitive Cartesian functions:                476
                             - Cartesian basis functions:                   1137
                             - Spherical basis functions:                   1067

  Maximum angular momentum of- Orbital basis functions:                        2
                             - Local part of the GTH pseudopotential:          2
                             - Non-local part of the GTH pseudopotential:      0


 SCF PARAMETERS         Density guess:                                   RESTART
                        --------------------------------------------------------
                        max_scf:                                              30
                        max_scf_history:                                       0
                        max_diis:                                              4
                        --------------------------------------------------------
                        eps_scf:                                        1.00E-06
                        eps_scf_history:                                0.00E+00
                        eps_diis:                                       1.00E-01
                        eps_eigval:                                     1.00E-05
                        --------------------------------------------------------
                        level_shift [a.u.]:                                 0.00
                        --------------------------------------------------------
                        Outer loop SCF in use 
                        No variables optimised in outer loop
                        eps_scf                                         1.00E-06
                        max_scf                                               20
                        No outer loop optimization
                        step_size                                       5.00E-01

 *******************************************************************************
 *******************************************************************************
 **                                                                           **
 **             #######  ##     ## ##     ## ##     ##                        **
 **            ##     ## ###   ### ###   ### ###   ###                        **
 **            ##     ## #### #### #### #### #### ####                        **
 **            ##     ## ## ### ## ## ### ## ## ### ##                        **
 **            ##  ## ## ##     ## ##     ## ##     ##                        **
 **            ##    ##  ##     ## ##     ## ##     ##  T.Laino and F.Mohamed **
 **             ##### ## ##     ## ##     ## ##     ##  2005 - 2015           **
 **                                                                           **
 **                                                     Calculation Started.. **
 *******************************************************************************
 *******************************************************************************

 MD_PAR| Molecular dynamics protocol (MD input parameters)
 MD_PAR| Ensemble type                                                       NVE
 MD_PAR| Number of time steps                                                  6
 MD_PAR| Time step [fs]                                                 1.000000
 MD_PAR| Temperature [K]                                              300.000000
 MD_PAR| Temperature tolerance [K]                                      0.000000
 MD_PAR| Print MD information every                                    1 step(s)
 MD_PAR| File type   Print frequency [steps]                          File names
 MD_PAR| Coordinates          1                           CBD_PHY-PBE0-pos-1.xyz
 MD_PAR| Velocities           1                           CBD_PHY-PBE0-vel-1.xyz
 MD_PAR| Energies             1                              CBD_PHY-PBE0-1.ener
 MD_PAR| Dump                20                           CBD_PHY-PBE0-1.restart

 ROT| Rotational analysis information
 ROT| Principal axes and moments of inertia [a.u.]
 ROT|                           1                   2                   3
 ROT| Eigenvalues      1.56283164001E+13   1.56407408488E+13   1.56663418804E+13
 ROT|      x              0.901637047331     -0.018153263569      0.432112362589
 ROT|      y              0.323714777231      0.690893927917     -0.646431994388
 ROT|      z             -0.286808957117      0.722728191915      0.628812040859
 ROT| Number of rotovibrational vectors                                        6

 DOF| Calculation of degrees of freedom
 DOF| Number of atoms                                                     167923
 DOF| Number of intramolecular constraints                                     0
 DOF| Number of intermolecular constraints                                     0
 DOF| Invariants (translations + rotations)                                    3
 DOF| Degrees of freedom                                                  503766

 DOF| Restraints information
 DOF| Number of intramolecular restraints                                      0
 DOF| Number of intermolecular restraints                                      0

 MD_VEL| Velocities initialization
 MD_VEL| Initial temperature [K]                                      300.000000
 MD_VEL| COM velocity            -0.0000000000     0.0000000000     0.0000000000

  Translating the system in order to center the QM fragment in the QM box.

 Number of electrons:                                                        180
 Number of occupied orbitals:                                                 90
 Number of molecular orbitals:                                                90

 Number of orbital functions:                                               1067
 Number of independent orbital functions:                                   1067

 Extrapolation method: initial_guess


 SCF WAVEFUNCTION OPTIMIZATION

  ----------------------------------- OT ---------------------------------------
  Minimizer      : DIIS                : direct inversion
                                         in the iterative subspace
                                         using   7 DIIS vectors
                                         safer DIIS on
  Preconditioner : FULL_ALL            : diagonalization, state selective
  Precond_solver : DEFAULT
  stepsize       :    0.15000000                  energy_gap     :    0.08000000
  eps_taylor     :   0.10000E-15                  max_taylor     :             4
  ----------------------------------- OT ---------------------------------------

  Step     Update method      Time    Convergence         Total energy    Change
  ------------------------------------------------------------------------------
  Decoupling Energy:                                               0.0370647021
  Recoupling Energy:                                              -0.0063741479
     1 OT DIIS     0.15E+00   32.6     0.00129057      -255.9257316521 -2.56E+02
  Decoupling Energy:                                               0.0370576004
  Recoupling Energy:                                              -0.0063740314
     2 OT DIIS     0.15E+00    7.6     0.00057761      -255.9419521977 -1.62E-02
  Decoupling Energy:                                               0.0369596417
  Recoupling Energy:                                              -0.0063730135
     3 OT DIIS     0.15E+00    7.6     0.00038348      -255.9451217318 -3.17E-03
  Decoupling Energy:                                               0.0369795470
  Recoupling Energy:                                              -0.0063732416
     4 OT DIIS     0.15E+00    7.6     0.00009866      -255.9458275768 -7.06E-04
  Decoupling Energy:                                               0.0369716948
  Recoupling Energy:                                              -0.0063731487
     5 OT DIIS     0.15E+00    7.6     0.00003992      -255.9458779686 -5.04E-05
  Decoupling Energy:                                               0.0369737640
  Recoupling Energy:                                              -0.0063731649
     6 OT DIIS     0.15E+00    7.6     0.00001793      -255.9458894170 -1.14E-05
  Decoupling Energy:                                               0.0369741808
  Recoupling Energy:                                              -0.0063731680
     7 OT DIIS     0.15E+00    7.7     0.00000621      -255.9458922938 -2.88E-06
  Decoupling Energy:                                               0.0369727127
  Recoupling Energy:                                              -0.0063731518
     8 OT DIIS     0.15E+00    7.7     0.00000242      -255.9458926328 -3.39E-07
  Decoupling Energy:                                               0.0369731061
  Recoupling Energy:                                              -0.0063731556
     9 OT DIIS     0.15E+00    7.7     0.00000111      -255.9458926822 -4.94E-08
  Decoupling Energy:                                               0.0369728228
  Recoupling Energy:                                              -0.0063731526
    10 OT DIIS     0.15E+00    7.7     0.00000048      -255.9458926924 -1.02E-08

  *** SCF run converged in    10 steps ***


  Electronic density on regular grids:       -179.9999999999        0.0000000001
  Core density on regular grids:              180.9999999999       -0.0000000001
  Total charge density on r-space grids:        1.0000000000
  Total charge density g-space grids:           1.0000000000

  Overlap energy of the core charge distribution:               0.00001951532734
  Self energy of the core charge distribution:               -615.71576003586028
  Core Hamiltonian energy:                                    191.01363220818030
  Hartree energy:                                             248.20663869015664
  Exchange-correlation energy:                                -61.38430761263439
  Hartree-Fock Exchange energy:                               -18.10821018492877
  QM/MM Electrostatic energy:                                   0.04209472735432

  Total energy:                                              -255.94589269240481

  outer SCF iter =    1 RMS gradient =   0.48E-06 energy =       -255.9458926924
  outer SCF loop converged in   1 iterations or   10 steps

  Decoupling Energy:                                               0.0369728028
  Recoupling Energy:                                              -0.0063731523

 ENERGY| Total FORCE_EVAL ( QMMM ) energy [a.u.]:          -1088.110859624594241

 MD_INI| MD initialization
 MD_INI| Potential energy [hartree]                          -0.108811085962E+04
 MD_INI| Total kinetic energy [hartree]                       0.239300084734E+03
 MD_INI| QM kinetic energy [hartree]                          0.106639360339E+00
 MD_INI| Total temperature [K]                                        300.000000
 MD_INI| QM temperature [K]                                           330.137318
 MD_INI| Cell volume [bohr^3]                                 1.137316355424E+07
 MD_INI| Cell volume [ang^3]                                  1.685328937712E+06
 MD_INI| Cell lengths [bohr]      2.24884969E+02  2.24884969E+02  2.24884969E+02
 MD_INI| Cell lengths [ang]       1.19004000E+02  1.19004000E+02  1.19004000E+02
 MD_INI| Cell angles [deg]        9.00000000E+01  9.00000000E+01  9.00000000E+01

  Translating the system in order to center the QM fragment in the QM box.

 Number of electrons:                                                        180
 Number of occupied orbitals:                                                 90
 Number of molecular orbitals:                                                90

 Number of orbital functions:                                               1067
 Number of independent orbital functions:                                   1067

 Extrapolation method: ASPC


 SCF WAVEFUNCTION OPTIMIZATION

  ----------------------------------- OT ---------------------------------------
  Minimizer      : DIIS                : direct inversion
                                         in the iterative subspace
                                         using   7 DIIS vectors
                                         safer DIIS on
  Preconditioner : FULL_ALL            : diagonalization, state selective
  Precond_solver : DEFAULT
  stepsize       :    0.15000000                  energy_gap     :    0.08000000
  eps_taylor     :   0.10000E-15                  max_taylor     :             4
  ----------------------------------- OT ---------------------------------------

  Step     Update method      Time    Convergence         Total energy    Change
  ------------------------------------------------------------------------------
  Decoupling Energy:                                               0.0370014667
  Recoupling Energy:                                              -0.0063734172
     1 OT DIIS     0.15E+00   28.0     0.00075899      -255.7182133723 -2.56E+02
  Decoupling Energy:                                               0.0370082386
  Recoupling Energy:                                              -0.0063735355
     2 OT DIIS     0.15E+00    7.5     0.00032685      -255.7237312508 -5.52E-03
  Decoupling Energy:                                               0.0370087411
  Recoupling Energy:                                              -0.0063735590
     3 OT DIIS     0.15E+00    7.5     0.00019068      -255.7247685815 -1.04E-03
  Decoupling Energy:                                               0.0370199883
  Recoupling Energy:                                              -0.0063736817
     4 OT DIIS     0.15E+00    7.5     0.00006054      -255.7249610186 -1.92E-04
  Decoupling Energy:                                               0.0370216763
  Recoupling Energy:                                              -0.0063737045
     5 OT DIIS     0.15E+00    7.5     0.00001954      -255.7249775833 -1.66E-05
  Decoupling Energy:                                               0.0370210005
  Recoupling Energy:                                              -0.0063736984
     6 OT DIIS     0.15E+00    7.5     0.00000817      -255.7249798417 -2.26E-06
  Decoupling Energy:                                               0.0370221929
  Recoupling Energy:                                              -0.0063737124
     7 OT DIIS     0.15E+00    7.5     0.00000308      -255.7249803038 -4.62E-07
  Decoupling Energy:                                               0.0370222382
  Recoupling Energy:                                              -0.0063737132
     8 OT DIIS     0.15E+00    7.5     0.00000136      -255.7249803810 -7.72E-08
  Decoupling Energy:                                               0.0370224659
  Recoupling Energy:                                              -0.0063737159
     9 OT DIIS     0.15E+00    7.5     0.00000058      -255.7249803967 -1.57E-08

  *** SCF run converged in     9 steps ***


  Electronic density on regular grids:       -180.0000000000        0.0000000000
  Core density on regular grids:              180.9999999999       -0.0000000001
  Total charge density on r-space grids:        0.9999999999
  Total charge density g-space grids:           0.9999999999

  Overlap energy of the core charge distribution:               0.00002422739645
  Self energy of the core charge distribution:               -615.71576003586028
  Core Hamiltonian energy:                                    191.21094999558369
  Hartree energy:                                             248.07774806363645
  Exchange-correlation energy:                                -61.42683491272778
  Hartree-Fock Exchange energy:                               -18.12283147477742
  QM/MM Electrostatic energy:                                   0.25172374003545

  Total energy:                                              -255.72498039671345

  outer SCF iter =    1 RMS gradient =   0.58E-06 energy =       -255.7249803967
  outer SCF loop converged in   1 iterations or    9 steps

  Decoupling Energy:                                               0.0370224944
  Recoupling Energy:                                              -0.0063737164

 ENERGY| Total FORCE_EVAL ( QMMM ) energy [a.u.]:          -1059.962356566485596

 MD| ***************************************************************************
 MD| Step number                                                               1
 MD| Time [fs]                                                          1.000000
 MD| Conserved quantity [hartree]                            -0.841461427177E+03
 MD| ---------------------------------------------------------------------------
 MD|                                          Instantaneous             Averages
 MD| CPU time per MD step [s]                    471.032009           471.032009
 MD| Energy drift per atom [K]           0.138202490817E+02   0.000000000000E+00
 MD| Potential energy [hartree]         -0.105996235657E+04  -0.105996235657E+04
 MD| Total kinetic energy [hartree]      0.218500929389E+03   0.218500929389E+03
 MD| QM kinetic energy [hartree]         0.121347264386E+00   0.121347264386E+00
 MD| Total temperature [K]                       273.925013           273.925013
 MD| QM temperature [K]                          375.670487           375.670487
 MD| ***************************************************************************

  Translating the system in order to center the QM fragment in the QM box.

 Number of electrons:                                                        180
 Number of occupied orbitals:                                                 90
 Number of molecular orbitals:                                                90

 Number of orbital functions:                                               1067
 Number of independent orbital functions:                                   1067

 Extrapolation method: ASPC


 SCF WAVEFUNCTION OPTIMIZATION

  ----------------------------------- OT ---------------------------------------
  Minimizer      : DIIS                : direct inversion
                                         in the iterative subspace
                                         using   7 DIIS vectors
                                         safer DIIS on
  Preconditioner : FULL_ALL            : diagonalization, state selective
  Precond_solver : DEFAULT
  stepsize       :    0.15000000                  energy_gap     :    0.08000000
  eps_taylor     :   0.10000E-15                  max_taylor     :             4
  ----------------------------------- OT ---------------------------------------

  Step     Update method      Time    Convergence         Total energy    Change
  ------------------------------------------------------------------------------
  Decoupling Energy:                                               0.0370781912
  Recoupling Energy:                                              -0.0063743357
     1 OT DIIS     0.15E+00   28.1     0.00029255      -255.3622523152 -2.55E+02
  Decoupling Energy:                                               0.0370714457
  Recoupling Energy:                                              -0.0063742686
     2 OT DIIS     0.15E+00    7.5     0.00012379      -255.3630880999 -8.36E-04
  Decoupling Energy:                                               0.0370747210
  Recoupling Energy:                                              -0.0063743003
     3 OT DIIS     0.15E+00    7.5     0.00005679      -255.3632554220 -1.67E-04
  Decoupling Energy:                                               0.0370720764
  Recoupling Energy:                                              -0.0063742776
     4 OT DIIS     0.15E+00    7.4     0.00001757      -255.3632742162 -1.88E-05
  Decoupling Energy:                                               0.0370725479
  Recoupling Energy:                                              -0.0063742816
     5 OT DIIS     0.15E+00    7.5     0.00000682      -255.3632757434 -1.53E-06
  Decoupling Energy:                                               0.0370729649
  Recoupling Energy:                                              -0.0063742866
     6 OT DIIS     0.15E+00    7.5     0.00000313      -255.3632760011 -2.58E-07
  Decoupling Energy:                                               0.0370729497
  Recoupling Energy:                                              -0.0063742866
     7 OT DIIS     0.15E+00    7.5     0.00000106      -255.3632760621 -6.10E-08
  Decoupling Energy:                                               0.0370730076
  Recoupling Energy:                                              -0.0063742873
     8 OT DIIS     0.15E+00    7.5     0.00000048      -255.3632760723 -1.02E-08

  *** SCF run converged in     8 steps ***


  Electronic density on regular grids:       -180.0000000000       -0.0000000000
  Core density on regular grids:              180.9999999999       -0.0000000001
  Total charge density on r-space grids:        0.9999999998
  Total charge density g-space grids:           0.9999999998

  Overlap energy of the core charge distribution:               0.00005088937224
  Self energy of the core charge distribution:               -615.71576003586028
  Core Hamiltonian energy:                                    191.44418445920076
  Hartree energy:                                             247.94136923216533
  Exchange-correlation energy:                                -61.47332512592541
  Hartree-Fock Exchange energy:                               -18.13880676638292
  QM/MM Electrostatic energy:                                   0.57901127517402

  Total energy:                                              -255.36327607225627

  outer SCF iter =    1 RMS gradient =   0.48E-06 energy =       -255.3632760723
  outer SCF loop converged in   1 iterations or    8 steps

  Decoupling Energy:                                               0.0370730243
  Recoupling Energy:                                              -0.0063742875

 ENERGY| Total FORCE_EVAL ( QMMM ) energy [a.u.]:          -1061.235329425583586

 MD| ***************************************************************************
 MD| Step number                                                               2
 MD| Time [fs]                                                          2.000000
 MD| Conserved quantity [hartree]                            -0.842817774973E+03
 MD| ---------------------------------------------------------------------------
 MD|                                          Instantaneous             Averages
 MD| CPU time per MD step [s]                    220.040487           345.536248
 MD| Energy drift per atom [K]           0.112696738311E+02   0.563483691556E+01
 MD| Potential energy [hartree]         -0.106123532943E+04  -0.106059884300E+04
 MD| Total kinetic energy [hartree]      0.218417554452E+03   0.218459241921E+03
 MD| QM kinetic energy [hartree]         0.111577929116E+00   0.116462596751E+00
 MD| Total temperature [K]                       273.820489           273.872751
 MD| QM temperature [K]                          345.426287           360.548387
 MD| ***************************************************************************

  Translating the system in order to center the QM fragment in the QM box.

 Number of electrons:                                                        180
 Number of occupied orbitals:                                                 90
 Number of molecular orbitals:                                                90

 Number of orbital functions:                                               1067
 Number of independent orbital functions:                                   1067

 Extrapolation method: ASPC


 SCF WAVEFUNCTION OPTIMIZATION

  ----------------------------------- OT ---------------------------------------
  Minimizer      : DIIS                : direct inversion
                                         in the iterative subspace
                                         using   7 DIIS vectors
                                         safer DIIS on
  Preconditioner : FULL_ALL            : diagonalization, state selective
  Precond_solver : DEFAULT
  stepsize       :    0.15000000                  energy_gap     :    0.08000000
  eps_taylor     :   0.10000E-15                  max_taylor     :             4
  ----------------------------------- OT ---------------------------------------

  Step     Update method      Time    Convergence         Total energy    Change
  ------------------------------------------------------------------------------
  Decoupling Energy:                                               0.0371231426
  Recoupling Energy:                                              -0.0063748340
     1 OT DIIS     0.15E+00   28.0     0.00057309      -254.8840267699 -2.55E+02
  Decoupling Energy:                                               0.0371263871
  Recoupling Energy:                                              -0.0063748788
     2 OT DIIS     0.15E+00    7.5     0.00022566      -254.8871523941 -3.13E-03
  Decoupling Energy:                                               0.0371270921
  Recoupling Energy:                                              -0.0063748847
     3 OT DIIS     0.15E+00    7.5     0.00008229      -254.8877077304 -5.55E-04
  Decoupling Energy:                                               0.0371223293
  Recoupling Energy:                                              -0.0063748373
     4 OT DIIS     0.15E+00    7.5     0.00002756      -254.8877579542 -5.02E-05
  Decoupling Energy:                                               0.0371233226
  Recoupling Energy:                                              -0.0063748479
     5 OT DIIS     0.15E+00    7.5     0.00001041      -254.8877617608 -3.81E-06
  Decoupling Energy:                                               0.0371231655
  Recoupling Energy:                                              -0.0063748451
     6 OT DIIS     0.15E+00    7.5     0.00000442      -254.8877623486 -5.88E-07
  Decoupling Energy:                                               0.0371230849
  Recoupling Energy:                                              -0.0063748446
     7 OT DIIS     0.15E+00    7.5     0.00000136      -254.8877624396 -9.10E-08
  Decoupling Energy:                                               0.0371230882
  Recoupling Energy:                                              -0.0063748447
     8 OT DIIS     0.15E+00    7.5     0.00000059      -254.8877624505 -1.09E-08

  *** SCF run converged in     8 steps ***


  Electronic density on regular grids:       -180.0000000003       -0.0000000003
  Core density on regular grids:              180.9999999999       -0.0000000001
  Total charge density on r-space grids:        0.9999999996
  Total charge density g-space grids:           0.9999999996

  Overlap energy of the core charge distribution:               0.00005124480807
  Self energy of the core charge distribution:               -615.71576003586028
  Core Hamiltonian energy:                                    191.49125325893866
  Hartree energy:                                             247.90728387795536
  Exchange-correlation energy:                                -61.48094536129498
  Hartree-Fock Exchange energy:                               -18.14140134138024
  QM/MM Electrostatic energy:                                   1.05175590634167

  Total energy:                                              -254.88776245049172

  outer SCF iter =    1 RMS gradient =   0.59E-06 energy =       -254.8877624505
  outer SCF loop converged in   1 iterations or    8 steps

  Decoupling Energy:                                               0.0371230875
  Recoupling Energy:                                              -0.0063748447

 ENERGY| Total FORCE_EVAL ( QMMM ) energy [a.u.]:          -1082.045340639356709

 MD| ***************************************************************************
 MD| Step number                                                               3
 MD| Time [fs]                                                          3.000000
 MD| Conserved quantity [hartree]                            -0.846392350465E+03
 MD| ---------------------------------------------------------------------------
 MD|                                          Instantaneous             Averages
 MD| CPU time per MD step [s]                    223.111907           304.728134
 MD| Energy drift per atom [K]           0.454778155095E+01   0.527248512736E+01
 MD| Potential energy [hartree]         -0.108204534064E+04  -0.106774767554E+04
 MD| Total kinetic energy [hartree]      0.235652990174E+03   0.224190491338E+03
 MD| QM kinetic energy [hartree]         0.117355973859E+00   0.116760389120E+00
 MD| Total temperature [K]                       295.427798           281.057767
 MD| QM temperature [K]                          363.314131           361.470302
 MD| ***************************************************************************

  Translating the system in order to center the QM fragment in the QM box.

 Number of electrons:                                                        180
 Number of occupied orbitals:                                                 90
 Number of molecular orbitals:                                                90

 Number of orbital functions:                                               1067
 Number of independent orbital functions:                                   1067

 Extrapolation method: ASPC


 SCF WAVEFUNCTION OPTIMIZATION

  ----------------------------------- OT ---------------------------------------
  Minimizer      : DIIS                : direct inversion
                                         in the iterative subspace
                                         using   7 DIIS vectors
                                         safer DIIS on
  Preconditioner : FULL_ALL            : diagonalization, state selective
  Precond_solver : DEFAULT
  stepsize       :    0.15000000                  energy_gap     :    0.08000000
  eps_taylor     :   0.10000E-15                  max_taylor     :             4
  ----------------------------------- OT ---------------------------------------

  Step     Update method      Time    Convergence         Total energy    Change
  ------------------------------------------------------------------------------
  Decoupling Energy:                                               0.0371654262
  Recoupling Energy:                                              -0.0063753279
     1 OT DIIS     0.15E+00   28.6     0.00026652      -254.3373033220 -2.54E+02
  Decoupling Energy:                                               0.0371743008
  Recoupling Energy:                                              -0.0063754104
     2 OT DIIS     0.15E+00    7.4     0.00010690      -254.3379933384 -6.90E-04
  Decoupling Energy:                                               0.0371690634
  Recoupling Energy:                                              -0.0063753563
     3 OT DIIS     0.15E+00    7.4     0.00004007      -254.3381213838 -1.28E-04
  Decoupling Energy:                                               0.0371714989
  Recoupling Energy:                                              -0.0063753815
     4 OT DIIS     0.15E+00    7.4     0.00001263      -254.3381313024 -9.92E-06
  Decoupling Energy:                                               0.0371702546
  Recoupling Energy:                                              -0.0063753692
     5 OT DIIS     0.15E+00    7.5     0.00000533      -254.3381321409 -8.39E-07
  Decoupling Energy:                                               0.0371705313
  Recoupling Energy:                                              -0.0063753714
     6 OT DIIS     0.15E+00    7.4     0.00000188      -254.3381322764 -1.36E-07
  Decoupling Energy:                                               0.0371705459
  Recoupling Energy:                                              -0.0063753718
     7 OT DIIS     0.15E+00    7.5     0.00000064      -254.3381322949 -1.84E-08

  *** SCF run converged in     7 steps ***


  Electronic density on regular grids:       -179.9999999999        0.0000000001
  Core density on regular grids:              180.9999999999       -0.0000000001
  Total charge density on r-space grids:        1.0000000000
  Total charge density g-space grids:           1.0000000000

  Overlap energy of the core charge distribution:               0.00002358461032
  Self energy of the core charge distribution:               -615.71576003586028
  Core Hamiltonian energy:                                    191.34733323814177
  Hartree energy:                                             247.97609060256670
  Exchange-correlation energy:                                -61.44937091123897
  Hartree-Fock Exchange energy:                               -18.13041946461651
  QM/MM Electrostatic energy:                                   1.63397069150880

  Total energy:                                              -254.33813229488817

  outer SCF iter =    1 RMS gradient =   0.64E-06 energy =       -254.3381322949
  outer SCF loop converged in   1 iterations or    7 steps

  Decoupling Energy:                                               0.0371704739
  Recoupling Energy:                                              -0.0063753710

 ENERGY| Total FORCE_EVAL ( QMMM ) energy [a.u.]:          -1079.714053816513115

 MD| ***************************************************************************
 MD| Step number                                                               4
 MD| Time [fs]                                                          4.000000
 MD| Conserved quantity [hartree]                            -0.842113597314E+03
 MD| ---------------------------------------------------------------------------
 MD|                                          Instantaneous             Averages
 MD| CPU time per MD step [s]                    214.438259           282.155665
 MD| Energy drift per atom [K]           0.125938608237E+02   0.710282905146E+01
 MD| Potential energy [hartree]         -0.107971405382E+04  -0.107073927011E+04
 MD| Total kinetic energy [hartree]      0.237600456502E+03   0.227542982629E+03
 MD| QM kinetic energy [hartree]         0.148328412106E+00   0.124652394867E+00
 MD| Total temperature [K]                       297.869251           285.260638
 MD| QM temperature [K]                          459.199530           385.902609
 MD| ***************************************************************************

  Translating the system in order to center the QM fragment in the QM box.

 Number of electrons:                                                        180
 Number of occupied orbitals:                                                 90
 Number of molecular orbitals:                                                90

 Number of orbital functions:                                               1067
 Number of independent orbital functions:                                   1067

 Extrapolation method: ASPC


 SCF WAVEFUNCTION OPTIMIZATION

  ----------------------------------- OT ---------------------------------------
  Minimizer      : DIIS                : direct inversion
                                         in the iterative subspace
                                         using   7 DIIS vectors
                                         safer DIIS on
  Preconditioner : FULL_ALL            : diagonalization, state selective
  Precond_solver : DEFAULT
  stepsize       :    0.15000000                  energy_gap     :    0.08000000
  eps_taylor     :   0.10000E-15                  max_taylor     :             4
  ----------------------------------- OT ---------------------------------------

  Step     Update method      Time    Convergence         Total energy    Change
  ------------------------------------------------------------------------------
  Decoupling Energy:                                               0.0372103633
  Recoupling Energy:                                              -0.0063758461
     1 OT DIIS     0.15E+00   28.1     0.00032145      -253.7449315564 -2.54E+02
  Decoupling Energy:                                               0.0372071149
  Recoupling Energy:                                              -0.0063758009
     2 OT DIIS     0.15E+00    7.4     0.00013160      -253.7458493831 -9.18E-04
  Decoupling Energy:                                               0.0372094369
  Recoupling Energy:                                              -0.0063758223
     3 OT DIIS     0.15E+00    7.4     0.00006225      -253.7460080682 -1.59E-04
  Decoupling Energy:                                               0.0372087928
  Recoupling Energy:                                              -0.0063758152
     4 OT DIIS     0.15E+00    7.5     0.00002410      -253.7460391775 -3.11E-05
  Decoupling Energy:                                               0.0372096240
  Recoupling Energy:                                              -0.0063758220
     5 OT DIIS     0.15E+00    7.5     0.00000519      -253.7460416732 -2.50E-06
  Decoupling Energy:                                               0.0372093014
  Recoupling Energy:                                              -0.0063758193
     6 OT DIIS     0.15E+00    7.5     0.00000249      -253.7460418151 -1.42E-07
  Decoupling Energy:                                               0.0372093046
  Recoupling Energy:                                              -0.0063758191
     7 OT DIIS     0.15E+00    7.4     0.00000089      -253.7460418466 -3.14E-08

  *** SCF run converged in     7 steps ***


  Electronic density on regular grids:       -180.0000000000       -0.0000000000
  Core density on regular grids:              180.9999999999       -0.0000000001
  Total charge density on r-space grids:        0.9999999998
  Total charge density g-space grids:           0.9999999998

  Overlap energy of the core charge distribution:               0.00001841788805
  Self energy of the core charge distribution:               -615.71576003586028
  Core Hamiltonian energy:                                    191.22475258375860
  Hartree energy:                                             248.04794373489722
  Exchange-correlation energy:                                -61.41799191260962
  Hartree-Fock Exchange energy:                               -18.11952330789327
  QM/MM Electrostatic energy:                                   2.23451867325702

  Total energy:                                              -253.74604184656229

  outer SCF iter =    1 RMS gradient =   0.89E-06 energy =       -253.7460418466
  outer SCF loop converged in   1 iterations or    7 steps

  Decoupling Energy:                                               0.0372093311
  Recoupling Energy:                                              -0.0063758194

 ENERGY| Total FORCE_EVAL ( QMMM ) energy [a.u.]:          -1094.307011349970253

 MD| ***************************************************************************
 MD| Step number                                                               5
 MD| Time [fs]                                                          5.000000
 MD| Conserved quantity [hartree]                            -0.848389416020E+03
 MD| ---------------------------------------------------------------------------
 MD|                                          Instantaneous             Averages
 MD| CPU time per MD step [s]                    214.408585           268.606249
 MD| Energy drift per atom [K]           0.792353931138E+00   0.584073402739E+01
 MD| Potential energy [hartree]         -0.109430701135E+04  -0.107545281836E+04
 MD| Total kinetic energy [hartree]      0.245917595330E+03   0.231217905170E+03
 MD| QM kinetic energy [hartree]         0.157565167347E+00   0.131234949363E+00
 MD| Total temperature [K]                       308.296082           289.867727
 MD| QM temperature [K]                          487.794953           406.281078
 MD| ***************************************************************************

  Translating the system in order to center the QM fragment in the QM box.

 Number of electrons:                                                        180
 Number of occupied orbitals:                                                 90
 Number of molecular orbitals:                                                90

 Number of orbital functions:                                               1067
 Number of independent orbital functions:                                   1067

 Extrapolation method: ASPC


 SCF WAVEFUNCTION OPTIMIZATION

  ----------------------------------- OT ---------------------------------------
  Minimizer      : DIIS                : direct inversion
                                         in the iterative subspace
                                         using   7 DIIS vectors
                                         safer DIIS on
  Preconditioner : FULL_ALL            : diagonalization, state selective
  Precond_solver : DEFAULT
  stepsize       :    0.15000000                  energy_gap     :    0.08000000
  eps_taylor     :   0.10000E-15                  max_taylor     :             4
  ----------------------------------- OT ---------------------------------------

  Step     Update method      Time    Convergence         Total energy    Change
  ------------------------------------------------------------------------------
  Decoupling Energy:                                               0.0372437327
  Recoupling Energy:                                              -0.0063762149
     1 OT DIIS     0.15E+00   27.9     0.00048926      -253.1925211916 -2.53E+02
  Decoupling Energy:                                               0.0372420434
  Recoupling Energy:                                              -0.0063762278
     2 OT DIIS     0.15E+00    7.5     0.00019202      -253.1946664813 -2.15E-03
  Decoupling Energy:                                               0.0372396250
  Recoupling Energy:                                              -0.0063761944
     3 OT DIIS     0.15E+00    7.5     0.00008076      -253.1950229992 -3.57E-04
  Decoupling Energy:                                               0.0372398440
  Recoupling Energy:                                              -0.0063761986
     4 OT DIIS     0.15E+00    7.5     0.00002253      -253.1950818790 -5.89E-05
  Decoupling Energy:                                               0.0372387958
  Recoupling Energy:                                              -0.0063761870
     5 OT DIIS     0.15E+00    7.5     0.00000832      -253.1950844670 -2.59E-06
  Decoupling Energy:                                               0.0372394823
  Recoupling Energy:                                              -0.0063761928
     6 OT DIIS     0.15E+00    7.4     0.00000284      -253.1950848227 -3.56E-07
  Decoupling Energy:                                               0.0372392245
  Recoupling Energy:                                              -0.0063761904
     7 OT DIIS     0.15E+00    7.5     0.00000085      -253.1950848626 -3.99E-08

  *** SCF run converged in     7 steps ***


  Electronic density on regular grids:       -180.0000000000       -0.0000000000
  Core density on regular grids:              180.9999999999       -0.0000000001
  Total charge density on r-space grids:        0.9999999998
  Total charge density g-space grids:           0.9999999998

  Overlap energy of the core charge distribution:               0.00001843293805
  Self energy of the core charge distribution:               -615.71576003586028
  Core Hamiltonian energy:                                    191.21897143903416
  Hartree energy:                                             248.05851687827200
  Exchange-correlation energy:                                -61.40903224419252
  Hartree-Fock Exchange energy:                               -18.11645501788535
  QM/MM Electrostatic energy:                                   2.76865568508071

  Total energy:                                              -253.19508486261321

  outer SCF iter =    1 RMS gradient =   0.85E-06 energy =       -253.1950848626
  outer SCF loop converged in   1 iterations or    7 steps

  Decoupling Energy:                                               0.0372392228
  Recoupling Energy:                                              -0.0063761903

 ENERGY| Total FORCE_EVAL ( QMMM ) energy [a.u.]:          -1057.339965500728795

 MD| ***************************************************************************
 MD| Step number                                                               6
 MD| Time [fs]                                                          6.000000
 MD| Conserved quantity [hartree]                            -0.842900324208E+03
 MD| ---------------------------------------------------------------------------
 MD|                                          Instantaneous             Averages
 MD| CPU time per MD step [s]                    212.626517           259.276294
 MD| Energy drift per atom [K]           0.111144422338E+02   0.671968539512E+01
 MD| Potential energy [hartree]         -0.105733996550E+04  -0.107243400955E+04
 MD| Total kinetic energy [hartree]      0.214439641293E+03   0.228421527857E+03
 MD| QM kinetic energy [hartree]         0.141132984015E+00   0.132884621805E+00
 MD| Total temperature [K]                       268.833555           286.362031
 MD| QM temperature [K]                          436.923709           411.388183
 MD| ***************************************************************************

 -------------------------------------------------------------------------------
 -                                                                             -
 -                                DBCSR STATISTICS                             -
 -                                                                             -
 -------------------------------------------------------------------------------
 COUNTER                                    TOTAL       BLAS       SMM       ACC
 flops     9 x    26 x    26              2810808     100.0%      0.0%      0.0%
 flops    22 x    26 x    26              7287280     100.0%      0.0%      0.0%
 flops     9 x    32 x    32              8515584     100.0%      0.0%      0.0%
 flops    26 x    26 x    26             13709280     100.0%      0.0%      0.0%
 flops    22 x    32 x    32             22077440     100.0%      0.0%      0.0%
 flops    26 x    26 x    32             33745920     100.0%      0.0%      0.0%
 flops    26 x    32 x    26             33745920     100.0%      0.0%      0.0%
 flops    32 x    26 x    26             33745920     100.0%      0.0%      0.0%
 flops    93 x    26 x    26             35206080     100.0%      0.0%      0.0%
 flops   146 x    26 x    26             55269760     100.0%      0.0%      0.0%
 flops   155 x    26 x    26             58676800     100.0%      0.0%      0.0%
 flops   177 x    26 x    26             67005120     100.0%      0.0%      0.0%
 flops    26 x    26 x   261             81513432     100.0%      0.0%      0.0%
 flops    32 x    32 x    26             83066880     100.0%      0.0%      0.0%
 flops    26 x    32 x    32             83066880     100.0%      0.0%      0.0%
 flops    32 x    26 x    32             83066880     100.0%      0.0%      0.0%
 flops    26 x    26 x   266             83074992     100.0%      0.0%      0.0%
 flops    93 x    26 x    32             86661120     100.0%      0.0%      0.0%
 flops    93 x    32 x    26             86661120     100.0%      0.0%      0.0%
 flops   115 x    26 x    26             87068800     100.0%      0.0%      0.0%
 flops   133 x    26 x    26            100696960     100.0%      0.0%      0.0%
 flops   146 x    26 x    32            136048640     100.0%      0.0%      0.0%
 flops   146 x    32 x    26            136048640     100.0%      0.0%      0.0%
 flops   155 x    26 x    32            144435200     100.0%      0.0%      0.0%
 flops   155 x    32 x    26            144435200     100.0%      0.0%      0.0%
 flops    93 x    26 x   261            159036696     100.0%      0.0%      0.0%
 flops    93 x    26 x   266            162083376     100.0%      0.0%      0.0%
 flops   177 x    26 x    32            164935680     100.0%      0.0%      0.0%
 flops   177 x    32 x    26            164935680     100.0%      0.0%      0.0%
 flops     9 x     9 x    26            165405240     100.0%      0.0%      0.0%
 flops    26 x    26 x   270            168648480     100.0%      0.0%      0.0%
 flops    26 x    32 x   261            200648448     100.0%      0.0%      0.0%
 flops    32 x    26 x   261            200648448     100.0%      0.0%      0.0%
 flops    32 x    32 x    32            204472320     100.0%      0.0%      0.0%
 flops    26 x    32 x   266            204492288     100.0%      0.0%      0.0%
 flops    32 x    26 x   266            204492288     100.0%      0.0%      0.0%
 flops    93 x    32 x    32            213319680     100.0%      0.0%      0.0%
 flops   115 x    26 x    32            214323200     100.0%      0.0%      0.0%
 flops   115 x    32 x    26            214323200     100.0%      0.0%      0.0%
 flops   133 x    32 x    26            247869440     100.0%      0.0%      0.0%
 flops   133 x    26 x    32            247869440     100.0%      0.0%      0.0%
 flops   146 x    26 x   261            249670512     100.0%      0.0%      0.0%
 flops   146 x    26 x   266            254453472     100.0%      0.0%      0.0%
 flops   155 x    26 x   261            265061160     100.0%      0.0%      0.0%
 flops   155 x    26 x   266            270138960     100.0%      0.0%      0.0%
 flops   177 x    26 x   261            302682744     100.0%      0.0%      0.0%
 flops   177 x    26 x   266            308481264     100.0%      0.0%      0.0%
 flops    93 x    26 x   270            329041440     100.0%      0.0%      0.0%
 flops   146 x    32 x    32            334888960     100.0%      0.0%      0.0%
 flops   155 x    32 x    32            355532800     100.0%      0.0%      0.0%
 flops    93 x    32 x   261            391474944     100.0%      0.0%      0.0%
 flops   115 x    26 x   261            393316560     100.0%      0.0%      0.0%
 flops    93 x    32 x   266            398974464     100.0%      0.0%      0.0%
 flops   115 x    26 x   266            400851360     100.0%      0.0%      0.0%
 flops   177 x    32 x    32            405995520     100.0%      0.0%      0.0%
 flops     9 x     9 x    32            407151360     100.0%      0.0%      0.0%
 flops    26 x    32 x   270            415134720     100.0%      0.0%      0.0%
 flops    32 x    26 x   270            415134720     100.0%      0.0%      0.0%
 flops    22 x     9 x    26            415855440     100.0%      0.0%      0.0%
 flops     9 x    22 x    26            416576160     100.0%      0.0%      0.0%
 flops   133 x    26 x   261            454879152     100.0%      0.0%      0.0%
 flops   133 x    26 x   266            463593312     100.0%      0.0%      0.0%
 flops    32 x    32 x   261            493903872     100.0%      0.0%      0.0%
 flops    32 x    32 x   266            503365632     100.0%      0.0%      0.0%
 flops   146 x    26 x   270            516559680     100.0%      0.0%      0.0%
 flops   115 x    32 x    32            527564800     100.0%      0.0%      0.0%
 flops   155 x    26 x   270            548402400     100.0%      0.0%      0.0%
 flops   133 x    32 x    32            610140160     100.0%      0.0%      0.0%
 flops   146 x    32 x   261            614573568     100.0%      0.0%      0.0%
 flops   177 x    26 x   270            626240160     100.0%      0.0%      0.0%
 flops   146 x    32 x   266            626347008     100.0%      0.0%      0.0%
 flops   155 x    32 x   261            652458240     100.0%      0.0%      0.0%
 flops   155 x    32 x   266            664957440     100.0%      0.0%      0.0%
 flops   177 x    32 x   261            745065216     100.0%      0.0%      0.0%
 flops   177 x    32 x   266            759338496     100.0%      0.0%      0.0%
 flops     9 x    26 x     9            802701900     100.0%      0.0%      0.0%
 flops    93 x    32 x   270            809948160     100.0%      0.0%      0.0%
 flops   115 x    26 x   270            813758400     100.0%      0.0%      0.0%
 flops   133 x    26 x   270            941129280     100.0%      0.0%      0.0%
 flops   115 x    32 x   261            968163840     100.0%      0.0%      0.0%
 flops   115 x    32 x   266            986711040     100.0%      0.0%      0.0%
 flops    32 x    32 x   270           1021870080     100.0%      0.0%      0.0%
 flops    22 x     9 x    32           1023644160     100.0%      0.0%      0.0%
 flops     9 x    22 x    32           1025418240     100.0%      0.0%      0.0%
 flops    22 x    22 x    26           1109908800     100.0%      0.0%      0.0%
 flops   133 x    32 x   261           1119702528     100.0%      0.0%      0.0%
 flops   133 x    32 x   266           1141152768     100.0%      0.0%      0.0%
 flops   146 x    32 x   270           1271531520     100.0%      0.0%      0.0%
 flops   155 x    32 x   270           1349913600     100.0%      0.0%      0.0%
 flops   177 x    32 x   270           1541514240     100.0%      0.0%      0.0%
 flops     9 x    32 x     9           1975881600     100.0%      0.0%      0.0%
 flops   115 x    32 x   270           2003097600     100.0%      0.0%      0.0%
 flops     9 x    26 x    22           2081079000     100.0%      0.0%      0.0%
 flops    22 x    26 x     9           2081079000     100.0%      0.0%      0.0%
 flops   133 x    32 x   270           2316625920     100.0%      0.0%      0.0%
 flops    22 x    22 x    32           2732083200     100.0%      0.0%      0.0%
 flops    22 x    32 x     9           5122656000     100.0%      0.0%      0.0%
 flops     9 x    32 x    22           5122656000     100.0%      0.0%      0.0%
 flops    22 x    26 x    22           5395390000     100.0%      0.0%      0.0%
 flops    22 x    32 x    22          13280960000     100.0%      0.0%      0.0%
 flops inhomo. stacks                           0       0.0%      0.0%      0.0%
 flops total                        78.421527E+09     100.0%      0.0%      0.0%
 flops max/rank                      7.081808E+09     100.0%      0.0%      0.0%
 matmuls inhomo. stacks                         0       0.0%      0.0%      0.0%
 matmuls total                            2972790     100.0%      0.0%      0.0%
 number of processed stacks                145308     100.0%      0.0%      0.0%
 average stack size                                    20.5       0.0       0.0
 marketing flops                    85.671830E+09
 -------------------------------------------------------------------------------
 # multiplications                           1286
 max memory usage/rank               3.648754E+09
 # max total images/rank                        1
 # max 3D layers                                1
 # MPI messages exchanged                  123456
 MPI messages size (bytes):
  total size                        11.173573E+09
  min size                           0.000000E+00
  max size                         583.200000E+03
  average size                      90.506516E+03
 MPI breakdown and total messages size (bytes):
             size <=      128               37485                        0
       128 < size <=     8192               28683                206521632
      8192 < size <=    32768                   0                        0
     32768 < size <=   131072               42840               2742616800
    131072 < size <=  4194304               14448               8224444536
   4194304 < size <= 16777216                   0                        0
  16777216 < size                               0                        0
 -------------------------------------------------------------------------------
 -                                                                             -
 -                      DBCSR MESSAGE PASSING PERFORMANCE                      -
 -                                                                             -
 -------------------------------------------------------------------------------
 ROUTINE             CALLS      AVE VOLUME [Bytes]
 MP_Bcast              101                     12.
 MP_Allreduce         6950                      9.
 MP_Alltoall          5344                  20041.
 MP_ISend            20548                  38349.
 MP_IRecv            20548                  36299.
 -------------------------------------------------------------------------------

 -------------------------------------------------------------------------------
 -                                                                             -
 -                                GRID STATISTICS                              -
 -                                                                             -
 -------------------------------------------------------------------------------
 LP    KERNEL             BACKEND                              COUNT     PERCENT
 2     collocate ortho    REF                                1126269      19.20%
 2     integrate ortho    REF                                1106014      18.85%
 1     collocate ortho    REF                                 943978      16.09%
 1     integrate ortho    REF                                 870340      14.83%
 3     integrate ortho    REF                                 570062       9.72%
 3     collocate ortho    REF                                 500530       8.53%
 0     collocate ortho    REF                                 281245       4.79%
 0     integrate ortho    REF                                 249988       4.26%
 4     integrate ortho    REF                                 121240       2.07%
 4     collocate ortho    REF                                  73823       1.26%
 5     integrate ortho    REF                                   8201       0.14%
 0     collocate general  REF                                   7616       0.13%
 1     integrate general  REF                                   7616       0.13%
 -------------------------------------------------------------------------------

 MEMORY| Estimated peak process memory [MiB]                                3557

 -------------------------------------------------------------------------------
 -                                                                             -
 -                         MESSAGE PASSING PERFORMANCE                         -
 -                                                                             -
 -------------------------------------------------------------------------------

 ROUTINE             CALLS      AVE VOLUME [Bytes]
 MP_Group                8
 MP_Bcast             6935               10576129.
 MP_Allreduce         2453                1675496.
 MP_Sync               430
 MP_Alltoall          1344               71189870.
 MP_ISendRecv         6195                 195471.
 MP_Wait             12964
 MP_comm_split          14
 MP_ISend             5887                1348673.
 MP_IRecv             5880                1349303.
 MP_Recv                21                 196328.
 -------------------------------------------------------------------------------


 -------------------------------------------------------------------------------
 -                                                                             -
 -                           R E F E R E N C E S                               -
 -                                                                             -
 -------------------------------------------------------------------------------
 
 CP2K version 8.2, the CP2K developers group (2021).
 CP2K is freely available from https://www.cp2k.org/ .

 Kuehne,Thomas D.; Iannuzzi,Marcella; Del Ben,Mauro;
 Rybkin,Vladimir V.; Seewald,Patrick; Stein,Frederick; Laino,Teodoro;
 Khaliullin,Rustam Z.; Schuett,Ole; Schiffmann,Florian; Golze,Dorothea;
 Wilhelm,Jan; Chulkov,Sergey; Bani-Hashemian,Mohammad Hossein;
 Weber,Valery; Borstnik,Urban; Taillefumier,Mathieu;
 Jakobovits,Alice Shoshana; Lazzaro,Alfio; Pabst,Hans; Mueller,Tiziano;
 Schade,Robert; Guidon,Manuel; Andermatt,Samuel; Holmberg,Nico;
 Schenter,Gregory K.; Hehn,Anna; Bussy,Augustin; Belleflamme,Fabian;
 Tabacchi,Gloria; Gloess,Andreas; Lass,Michael; Bethune,Iain;
 Mundy,Christopher J.; Plessl,Christian; Watkins,Matt;
 VandeVondele,Joost; Krack,Matthias; Hutter,Juerg. 
 The Journal of Chemical Physics, 152 (19), (2020). 
 CP2K: An electronic structure and molecular dynamics software package -
 Quickstep: Efficient and accurate electronic structure calculations.
 https://doi.org/10.1063/5.0007045

 Schuett, Ole; Messmer, Peter; Hutter, Juerg; VandeVondele, Joost. 
 Electronic Structure Calculations on Graphics Processing Units, John
 Wiley & Sons, Ltd, 173-190 (2016). 
 GPU-Accelerated Sparse Matrix-Matrix Multiplication for
 Linear Scaling Density Functional Theory.
 https://doi.org/10.1002/9781118670712.ch8

 Borstnik, U; VandeVondele, J; Weber, V; Hutter, J. 
 PARALLEL COMPUTING, 40 (5-6), 47-58 (2014). 
 Sparse matrix multiplication: The distributed block-compressed sparse
 row library.
 https://doi.org/10.1016/j.parco.2014.03.012

 Hutter, J; Iannuzzi, M; Schiffmann, F; VandeVondele, J. 
 WIREs Comput Mol Sci., 4 (1), 15-25 (2014). 
 CP2K: atomistic simulations of condensed matter systems.
 https://doi.org/10.1002/wcms.1159

 Marek, A; Blum, V; Johanni, R; Havu, V; Lang, B; Auckenthaler, T;
 Heinecke, A; Bungartz, H; Lederer, H. 
 Journal of Physics: Condensed Matter, 26 (21), (2014). 
 The ELPA library: scalable parallel eigenvalue solutions for
 electronic structure
 theory and computational science.
 https://doi.org/10.1088/0953-8984/26/21/213201

 Guidon, M; Hutter, J; VandeVondele, J. 
 JOURNAL OF CHEMICAL THEORY AND COMPUTATION, 5 (11), 3010-3021 (2009). 
 Robust Periodic Hartree-Fock Exchange for Large-Scale Simulations Using
 Gaussian Basis Sets.
 https://doi.org/10.1021/ct900494g

 Guidon, M; Schiffmann, F; Hutter, J; VandeVondele, J. 
 JOURNAL OF CHEMICAL PHYSICS, 128 (21), 214104 (2008). 
 Ab initio molecular dynamics using hybrid density functionals.
 https://doi.org/10.1063/1.2931945

 Kuhne, TD; Krack, M; Mohamed, FR; Parrinello, M. 
 PHYSICAL REVIEW LETTERS, 98 (6), 066401 (2007). 
 Efficient and accurate Car-Parrinello-like approach to
 Born-Oppenheimer molecular dynamics.
 https://doi.org/10.1103/PhysRevLett.98.066401

 Laino, T; Mohamed, F; Laio, A; Parrinello, M. 
 JOURNAL OF CHEMICAL THEORY AND COMPUTATION, 2 (5), 1370-1378 (2006). 
 An efficient linear-scaling electrostatic coupling for treating
 periodic boundary conditions in QM/MM simulations.
 https://doi.org/10.1021/ct6001169

 Laino, T; Mohamed, F; Laio, A; Parrinello, M. 
 JOURNAL OF CHEMICAL THEORY AND COMPUTATION, 1 (6), 1176-1184 (2005). 
 An efficient real space multigrid QM/MM electrostatic coupling.
 https://doi.org/10.1021/ct050123f

 Krack, M. 
 THEORETICAL CHEMISTRY ACCOUNTS, 114 (1-3), 145-152 (2005). 
 Pseudopotentials for H to Kr optimized for gradient-corrected
 exchange-correlation functionals.
 https://doi.org/10.1007/s00214-005-0655-y

 VandeVondele, J; Krack, M; Mohamed, F; Parrinello, M; Chassaing, T;
 Hutter, J. COMPUTER PHYSICS COMMUNICATIONS, 167 (2), 103-128 (2005). 
 QUICKSTEP: Fast and accurate density functional calculations using a
 mixed Gaussian and plane waves approach.
 https://doi.org/10.1016/j.cpc.2004.12.014

 Frigo, M; Johnson, SG. 
 PROCEEDINGS OF THE IEEE, 93 (2), 216-231 (2005). 
 The design and implementation of FFTW3.
 https://doi.org/10.1109/JPROC.2004.840301

 Kolafa, J. 
 JOURNAL OF COMPUTATIONAL CHEMISTRY, 25 (3), 335-342 (2004). 
 Time-reversible always stable predictor-corrector method for molecular dynamics of polarizable molecules.
 https://doi.org/10.1002/jcc.10385

 VandeVondele, J; Hutter, J. 
 JOURNAL OF CHEMICAL PHYSICS, 118 (10), 4365-4369 (2003). 
 An efficient orbital transformation method for electronic structure
 calculations.
 https://doi.org/10.1063/1.1543154

 Hartwigsen, C; Goedecker, S; Hutter, J. 
 PHYSICAL REVIEW B, 58 (7), 3641-3662 (1998). 
 Relativistic separable dual-space Gaussian pseudopotentials from H to Rn.
 https://doi.org/10.1103/PhysRevB.58.3641

 Lippert, G; Hutter, J; Parrinello, M. 
 MOLECULAR PHYSICS, 92 (3), 477-487 (1997). 
 A hybrid Gaussian and plane wave density functional scheme.
 https://doi.org/10.1080/002689797170220

 Perdew, JP; Burke, K; Ernzerhof, M. 
 PHYSICAL REVIEW LETTERS, 77 (18), 3865-3868 (1996). 
 Generalized gradient approximation made simple.
 https://doi.org/10.1103/PhysRevLett.77.3865

 Goedecker, S; Teter, M; Hutter, J. 
 PHYSICAL REVIEW B, 54 (3), 1703-1710 (1996). 
 Separable dual-space Gaussian pseudopotentials.
 https://doi.org/10.1103/PhysRevB.54.1703

 ESSMANN, U; PERERA, L; BERKOWITZ, ML; DARDEN, T; LEE, H; PEDERSEN, LG. 
 JOURNAL OF CHEMICAL PHYSICS, 103 (19), 8577-8593 (1995). 
 A SMOOTH PARTICLE MESH EWALD METHOD.
 https://doi.org/10.1063/1.470117

 BLOCHL, PE. 
 JOURNAL OF CHEMICAL PHYSICS, 103 (17), 7422-7428 (1995). 
 ELECTROSTATIC DECOUPLING OF PERIODIC IMAGES OF PLANE-WAVE-EXPANDED
 DENSITIES AND DERIVED ATOMIC POINT CHARGES.
 https://doi.org/10.1063/1.470314


 -------------------------------------------------------------------------------
 -                                                                             -
 -                                T I M I N G                                  -
 -                                                                             -
 -------------------------------------------------------------------------------
 SUBROUTINE                       CALLS  ASD         SELF TIME        TOTAL TIME
                                MAXIMUM       AVERAGE  MAXIMUM  AVERAGE  MAXIMUM
 CP2K                                 1  1.0    0.713    0.762 1603.761 1603.764
 qs_mol_dyn_low                       1  2.0    0.264    0.272 1556.804 1558.225
 velocity_verlet                      6  3.0    0.308    0.323 1311.499 1311.667
 qs_forces                            7  3.9    0.097    0.098 1089.225 1089.226
 rebuild_ks_matrix                   63  8.5    0.001    0.001 1018.216 1018.225
 qs_ks_build_kohn_sham_matrix        63  9.5    0.146    0.171 1018.216 1018.224
 hfx_ks_matrix                       63 10.5    0.058    0.058  781.771  781.786
 qs_energies                          7  4.9    0.024    0.024  588.252  588.341
 scf_env_do_scf                       7  5.9    0.012    0.013  576.373  576.373
 qs_ks_update_qs_env                 63  7.8    0.001    0.001  517.849  517.857
 qs_ks_update_qs_env_forces           7  4.9    0.006    0.006  500.396  500.396
 derivatives_four_center              7  8.9    0.064    0.311  452.364  452.365
 derivatives_four_center_main         7  9.9    1.042    2.165  451.573  451.573
 derivatives_four_center_bin        457 10.9  446.444  450.046  446.444  450.046
 scf_env_do_scf_inner_loop           56  6.8    0.005    0.008  375.177  375.189
 integrate_four_center               63 11.5    3.450    3.966  329.235  329.251
 integrate_four_center_main          63 12.5    0.444    0.831  317.017  318.164
 integrate_four_center_bin         4043 13.5  316.573  317.841  316.573  317.841
 qmmm_forces                          7  3.9    0.088    0.088  263.260  263.261
 qmmm_forces_with_gaussian            7  4.9    3.494    3.592  259.253  260.600
 pw_transfer                       1337 12.0    0.115    0.126  211.426  216.854
 fft_wrap_pw1pw2                   1113 13.1    0.016    0.017  207.433  212.831
 qmmm_force_with_gaussian_low         7  5.9    0.000    0.000  210.741  212.173
 fft_wrap_pw1pw2_200                707 14.4   16.493   17.699  204.692  210.102
 init_scf_loop                        7  6.9    0.045    0.045  201.169  201.170
 qmmm_el_coupling                     7  3.9    0.004    0.022  190.281  190.509
 qmmm_elec_with_gaussian              7  4.9    2.131    2.503  190.230  190.460
 qmmm_forces_gaussian_low_R           7  6.9    0.000    0.000  175.620  177.011
 qmmm_forces_with_gaussian_LG         7  7.9  175.620  177.011  175.620  177.011
 fft3d_ps                          1113 15.1   98.569  103.647  161.387  167.292
 qs_vxc_create                       63 10.5    0.004    0.004  160.109  160.125
 xc_vxc_pw_create                    63 11.5    1.714    2.447  160.105  160.122
 qmmm_elec_with_gaussian_low          7  5.9    0.000    0.000  151.887  152.962
 qmmm_elec_gaussian_low_R             7  6.9    0.000    0.001  126.207  127.192
 qmmm_elec_with_gaussian_LG           7  7.9  126.207  127.192  126.207  127.192
 xc_rho_set_and_dset_create          63 12.5    0.675    0.979   80.709   85.474
 qs_rho_update_rho                   63  7.9    0.008    0.010   62.741   62.746
 calculate_rho_elec                  63  8.9    0.464    0.467   62.733   62.736
 density_rs2pw                       63  9.9    0.004    0.004   52.339   55.283
 qmmm_env_create                      1  2.0    7.606    7.616   44.712   44.714
 pw_integral_ab                    2967  7.5   39.299   40.272   40.517   41.803
 pw_restrict_s3                      21  5.9    9.060    9.157   40.134   40.566
 x_to_yz                            595 16.5   26.274   26.517   36.108   40.363
 sum_up_and_integrate                63 10.5    0.679    0.696   36.452   36.485
 integrate_v_rspace                  63 11.5    0.100    0.101   35.773   35.829
 qmmm_forces_gaussian_low_G           7  6.9   35.120   35.280   35.120   35.280
 fist_init                            1  3.0    0.020    0.021   33.896   33.896
 yz_to_x                            518 15.7   15.346   16.040   26.686   33.265
 -------------------------------------------------------------------------------

 The number of warnings for this run is : 0
 
 -------------------------------------------------------------------------------
  **** **** ******  **  PROGRAM ENDED AT                 2021-09-06 15:16:41.268
 ***** ** ***  *** **   PROGRAM RAN ON                                 nid001256
 **    ****   ******    PROGRAM RAN BY                                     hjbio
 ***** **    ** ** **   PROGRAM PROCESS ID                                193005
  **** **  *******  **  PROGRAM STOPPED IN /lus/cls01095/work/d118/d118/hjbio/qm
                                           mm-benchmarking/archer2/CPU/cp2kMD/CB
                                           D_PHY-PBE0/6STEPS/1NODES/32CPN/2THREA
                                           DS
