 DBCSR| CPU Multiplication driver                                           BLAS
 DBCSR| Multrec recursion limit                                              512
 DBCSR| Multiplication stack size                                           1000
 DBCSR| Maximum elements for images                                    UNLIMITED
 DBCSR| Multiplicative factor virtual images                                   1
 DBCSR| Use multiplication densification                                       T
 DBCSR| Multiplication size stacks                                             3
 DBCSR| Use memory pool for CPU allocation                                     F
 DBCSR| Number of 3D layers                                               SINGLE
 DBCSR| Use MPI memory allocation                                              F
 DBCSR| Use RMA algorithm                                                      F
 DBCSR| Use Communication thread                                               T
 DBCSR| Communication thread load                                             87
 DBCSR| MPI: My node id                                                        0
 DBCSR| MPI: Number of nodes                                                  64
 DBCSR| OMP: Current number of threads                                         1
 DBCSR| OMP: Max number of threads                                             1
 DBCSR| Split modifier for TAS multiplication algorithm                  1.0E+00


  **** **** ******  **  PROGRAM STARTED AT               2021-08-31 17:35:30.182
 ***** ** ***  *** **   PROGRAM STARTED ON                             nid001142
 **    ****   ******    PROGRAM STARTED BY                                 hjbio
 ***** **    ** ** **   PROGRAM PROCESS ID                                 18190
  **** **  *******  **  PROGRAM STARTED IN /lus/cls01095/work/d118/d118/hjbio/qm
                                           mm-benchmarking/archer2/CPU/cp2kMD/CB
                                           D_PHY-PBE0/6STEPS/1NODES/64CPN/1THREA
                                           DS

 CP2K| version string:                                          CP2K version 8.2
 CP2K| source code revision number:                                  git:310b7ab
 CP2K| cp2kflags: omp libint fftw3 libxc elpa parallel mpi3 scalapack plumed2   
 CP2K| is freely available from                            https://www.cp2k.org/
 CP2K| Program compiled at                          Thu 10 Jun 17:43:51 BST 2021
 CP2K| Program compiled on                                                 uan01
 CP2K| Program compiled for                                              ARCHER2
 CP2K| Data directory path              /work/d118/d118/hjbio/CP2K/cp2k-8.2/data
 CP2K| Input file name                                          CBD_PHY-cp2k.inp

 GLOBAL| Force Environment number                                              1
 GLOBAL| Basis set file name                                           HFX_BASIS
 GLOBAL| Potential file name                                           POTENTIAL
 GLOBAL| MM Potential file name                                     MM_POTENTIAL
 GLOBAL| Coordinate file name                                        CBD_PHY.pdb
 GLOBAL| Method name                                                        CP2K
 GLOBAL| Project name                                               CBD_PHY-PBE0
 GLOBAL| Run type                                                             MD
 GLOBAL| FFT library                                                       FFTW3
 GLOBAL| Diagonalization library                                            ELPA
 GLOBAL| Minimum number of eigenvectors for ELPA usage                        16
 GLOBAL| Orthonormality check for eigenvectors                          DISABLED
 GLOBAL| Matrix multiplication library                                    SCALAP
 GLOBAL| All-to-all communication in single precision                          F
 GLOBAL| FFTs using library dependent lengths                                  F
 GLOBAL| Grid backend                                                       AUTO
 GLOBAL| Global print level                                                  LOW
 GLOBAL| MPI I/O enabled                                                       T
 GLOBAL| Total number of message passing processes                            64
 GLOBAL| Number of threads for this process                                    1
 GLOBAL| This output is from process                                           0
 GLOBAL| CPU model name                          AMD EPYC 7742 64-Core Processor
 GLOBAL| CPUID                                                              1002

 MEMORY| system memory details [Kb]
 MEMORY|                        rank 0           min           max       average
 MEMORY| MemTotal            263568576     263568576     263568576     263568576
 MEMORY| MemFree             241464356     241464356     241464356     241464356
 MEMORY| Buffers                251352        251352        251352        251352
 MEMORY| Cached                1182404       1182404       1182404       1182404
 MEMORY| Slab                  2446480       2446480       2446480       2446480
 MEMORY| SReclaimable           199920        199920        199920        199920
 MEMORY| MemLikelyFree       243098032     243098032     243098032     243098032



                      ************* ******** ***********   
                     ************* **********************  
                     ****     **** ****      ***********   
                     ******** ****  *******     ****       
                     *******  ****   *******   ****        
                     ****     ****       ****  ****        
                     ****     **** **********  ****        
                      ****     **** ********    ****       
                     FRONTIERS IN SIMULATION TECHNOLOGY    
                                                           
                        C.J. Mundy, S. Balasubramanian,    
                     Ken Bagchi, J. Hutter, Ari Seitsonen  
                      IFW Kuo, T. Laino, J. VandeVondele   
                                 Version 1.0               

                                                           


 EWALD| Summation is done by:                                               SPME
 EWALD| Alpha parameter [       ANGSTROM^-1]                              0.4000
 EWALD| Real Space Cutoff [          ANGSTROM]                            8.4348
 EWALD| G-space max. Miller index                         80        80        80
 EWALD| Spline interpolation order                                             6

 FORCEFIELD| WARNING: A non Critical ForceField parameter is missing! CP2K GOES!
 FORCEFIELD| Non critical parameters are:Urey-Bradley,Torsions,Impropers, Opbends and 1-4
 FORCEFIELD| All missing parameters will not contribute to the potential energy!
 FORCEFIELD| Activate the print key FF_INFO to have a list of missing parameters

 CHARGE_INFO| Total Charge of the Classical System:                    -0.825808

 SPLINE_INFO| Generating 101926 splines for NONBONDED14 interactions 
              Due to 451 different atomic kinds
  ...10192  ...20384  ...30576  ...40768  ...50960  ...61152  ...71344  ...81536  ...91728  ...101920
 SPLINE_INFO| Number of unique splines computed:            301
 SPLINE_INFO| Done

 SPLINE_INFO| Generating 101926 splines for NONBONDED interactions 
              Due to 451 different atomic kinds
  ...10192  ...20384  ...30576  ...40768  ...50960  ...61152  ...71344  ...81536  ...91728  ...101920
 SPLINE_INFO| Number of unique splines computed:            301
 SPLINE_INFO| Done

 *******************************************************************************
 *******************************************************************************
 **                                                                           **
 **     #####                         ##              ##                      **
 **    ##   ##            ##          ##              ##                      **
 **   ##     ##                       ##            ######                    **
 **   ##     ##  ##   ##  ##   #####  ##  ##   ####   ##    #####    #####    **
 **   ##     ##  ##   ##  ##  ##      ## ##   ##      ##   ##   ##  ##   ##   **
 **   ##  ## ##  ##   ##  ##  ##      ####     ###    ##   ######   ######    **
 **    ##  ###   ##   ##  ##  ##      ## ##      ##   ##   ##       ##        **
 **     #######   #####   ##   #####  ##  ##  ####    ##    #####   ##        **
 **           ##                                                    ##        **
 **                                                                           **
 **                                                ... make the atoms dance   **
 **                                                                           **
 **            Copyright (C) by CP2K developers group (2000-2021)             **
 **                      J. Chem. Phys. 152, 194103 (2020)                    **
 **                                                                           **
 *******************************************************************************


 TOTAL NUMBERS AND MAXIMUM NUMBERS

  Total number of            - Atomic kinds:                                   5
                             - Atoms:                                         68
                             - Shell sets:                                   340
                             - Shells:                                       445
                             - Primitive Cartesian functions:                476
                             - Cartesian basis functions:                   1137
                             - Spherical basis functions:                   1067

  Maximum angular momentum of- Orbital basis functions:                        2
                             - Local part of the GTH pseudopotential:          2
                             - Non-local part of the GTH pseudopotential:      0


 SCF PARAMETERS         Density guess:                                   RESTART
                        --------------------------------------------------------
                        max_scf:                                              30
                        max_scf_history:                                       0
                        max_diis:                                              4
                        --------------------------------------------------------
                        eps_scf:                                        1.00E-06
                        eps_scf_history:                                0.00E+00
                        eps_diis:                                       1.00E-01
                        eps_eigval:                                     1.00E-05
                        --------------------------------------------------------
                        level_shift [a.u.]:                                 0.00
                        --------------------------------------------------------
                        Outer loop SCF in use 
                        No variables optimised in outer loop
                        eps_scf                                         1.00E-06
                        max_scf                                               20
                        No outer loop optimization
                        step_size                                       5.00E-01

 *******************************************************************************
 *******************************************************************************
 **                                                                           **
 **             #######  ##     ## ##     ## ##     ##                        **
 **            ##     ## ###   ### ###   ### ###   ###                        **
 **            ##     ## #### #### #### #### #### ####                        **
 **            ##     ## ## ### ## ## ### ## ## ### ##                        **
 **            ##  ## ## ##     ## ##     ## ##     ##                        **
 **            ##    ##  ##     ## ##     ## ##     ##  T.Laino and F.Mohamed **
 **             ##### ## ##     ## ##     ## ##     ##  2005 - 2015           **
 **                                                                           **
 **                                                     Calculation Started.. **
 *******************************************************************************
 *******************************************************************************

 MD_PAR| Molecular dynamics protocol (MD input parameters)
 MD_PAR| Ensemble type                                                       NVE
 MD_PAR| Number of time steps                                                  6
 MD_PAR| Time step [fs]                                                 1.000000
 MD_PAR| Temperature [K]                                              300.000000
 MD_PAR| Temperature tolerance [K]                                      0.000000
 MD_PAR| Print MD information every                                    1 step(s)
 MD_PAR| File type   Print frequency [steps]                          File names
 MD_PAR| Coordinates          1                           CBD_PHY-PBE0-pos-1.xyz
 MD_PAR| Velocities           1                           CBD_PHY-PBE0-vel-1.xyz
 MD_PAR| Energies             1                              CBD_PHY-PBE0-1.ener
 MD_PAR| Dump                20                           CBD_PHY-PBE0-1.restart

 ROT| Rotational analysis information
 ROT| Principal axes and moments of inertia [a.u.]
 ROT|                           1                   2                   3
 ROT| Eigenvalues      1.56283164001E+13   1.56407408488E+13   1.56663418804E+13
 ROT|      x              0.901637047331     -0.018153263569      0.432112362589
 ROT|      y              0.323714777231      0.690893927917     -0.646431994388
 ROT|      z             -0.286808957117      0.722728191915      0.628812040859
 ROT| Number of rotovibrational vectors                                        6

 DOF| Calculation of degrees of freedom
 DOF| Number of atoms                                                     167923
 DOF| Number of intramolecular constraints                                     0
 DOF| Number of intermolecular constraints                                     0
 DOF| Invariants (translations + rotations)                                    3
 DOF| Degrees of freedom                                                  503766

 DOF| Restraints information
 DOF| Number of intramolecular restraints                                      0
 DOF| Number of intermolecular restraints                                      0

 MD_VEL| Velocities initialization
 MD_VEL| Initial temperature [K]                                      300.000000
 MD_VEL| COM velocity            -0.0000000000     0.0000000000     0.0000000000

  Translating the system in order to center the QM fragment in the QM box.

 Number of electrons:                                                        180
 Number of occupied orbitals:                                                 90
 Number of molecular orbitals:                                                90

 Number of orbital functions:                                               1067
 Number of independent orbital functions:                                   1067

 Extrapolation method: initial_guess


 SCF WAVEFUNCTION OPTIMIZATION

  ----------------------------------- OT ---------------------------------------
  Minimizer      : DIIS                : direct inversion
                                         in the iterative subspace
                                         using   7 DIIS vectors
                                         safer DIIS on
  Preconditioner : FULL_ALL            : diagonalization, state selective
  Precond_solver : DEFAULT
  stepsize       :    0.15000000                  energy_gap     :    0.08000000
  eps_taylor     :   0.10000E-15                  max_taylor     :             4
  ----------------------------------- OT ---------------------------------------

  Step     Update method      Time    Convergence         Total energy    Change
  ------------------------------------------------------------------------------
  Decoupling Energy:                                               0.0370647021
  Recoupling Energy:                                              -0.0063741479
     1 OT DIIS     0.15E+00   20.2     0.00129057      -255.9257316521 -2.56E+02
  Decoupling Energy:                                               0.0370576004
  Recoupling Energy:                                              -0.0063740314
     2 OT DIIS     0.15E+00    3.9     0.00057761      -255.9419521977 -1.62E-02
  Decoupling Energy:                                               0.0369596417
  Recoupling Energy:                                              -0.0063730135
     3 OT DIIS     0.15E+00    3.9     0.00038348      -255.9451217318 -3.17E-03
  Decoupling Energy:                                               0.0369795470
  Recoupling Energy:                                              -0.0063732416
     4 OT DIIS     0.15E+00    3.9     0.00009866      -255.9458275768 -7.06E-04
  Decoupling Energy:                                               0.0369716948
  Recoupling Energy:                                              -0.0063731487
     5 OT DIIS     0.15E+00    3.9     0.00003992      -255.9458779686 -5.04E-05
  Decoupling Energy:                                               0.0369737640
  Recoupling Energy:                                              -0.0063731649
     6 OT DIIS     0.15E+00    3.9     0.00001793      -255.9458894170 -1.14E-05
  Decoupling Energy:                                               0.0369741808
  Recoupling Energy:                                              -0.0063731680
     7 OT DIIS     0.15E+00    3.9     0.00000621      -255.9458922938 -2.88E-06
  Decoupling Energy:                                               0.0369727127
  Recoupling Energy:                                              -0.0063731518
     8 OT DIIS     0.15E+00    3.9     0.00000242      -255.9458926328 -3.39E-07
  Decoupling Energy:                                               0.0369731061
  Recoupling Energy:                                              -0.0063731556
     9 OT DIIS     0.15E+00    3.9     0.00000111      -255.9458926822 -4.94E-08
  Decoupling Energy:                                               0.0369728228
  Recoupling Energy:                                              -0.0063731526
    10 OT DIIS     0.15E+00    3.9     0.00000048      -255.9458926924 -1.02E-08

  *** SCF run converged in    10 steps ***


  Electronic density on regular grids:       -179.9999999999        0.0000000001
  Core density on regular grids:              180.9999999999       -0.0000000001
  Total charge density on r-space grids:        1.0000000000
  Total charge density g-space grids:           1.0000000000

  Overlap energy of the core charge distribution:               0.00001951532734
  Self energy of the core charge distribution:               -615.71576003586028
  Core Hamiltonian energy:                                    191.01363220817697
  Hartree energy:                                             248.20663869015971
  Exchange-correlation energy:                                -61.38430761263334
  Hartree-Fock Exchange energy:                               -18.10821018492814
  QM/MM Electrostatic energy:                                   0.04209472735318

  Total energy:                                              -255.94589269240450

  outer SCF iter =    1 RMS gradient =   0.48E-06 energy =       -255.9458926924
  outer SCF loop converged in   1 iterations or   10 steps

  Decoupling Energy:                                               0.0369728028
  Recoupling Energy:                                              -0.0063731523

 ENERGY| Total FORCE_EVAL ( QMMM ) energy [a.u.]:          -1088.110859624505338

 MD_INI| MD initialization
 MD_INI| Potential energy [hartree]                          -0.108811085962E+04
 MD_INI| Total kinetic energy [hartree]                       0.239300084734E+03
 MD_INI| QM kinetic energy [hartree]                          0.106639360339E+00
 MD_INI| Total temperature [K]                                        300.000000
 MD_INI| QM temperature [K]                                           330.137318
 MD_INI| Cell volume [bohr^3]                                 1.137316355424E+07
 MD_INI| Cell volume [ang^3]                                  1.685328937712E+06
 MD_INI| Cell lengths [bohr]      2.24884969E+02  2.24884969E+02  2.24884969E+02
 MD_INI| Cell lengths [ang]       1.19004000E+02  1.19004000E+02  1.19004000E+02
 MD_INI| Cell angles [deg]        9.00000000E+01  9.00000000E+01  9.00000000E+01

  Translating the system in order to center the QM fragment in the QM box.

 Number of electrons:                                                        180
 Number of occupied orbitals:                                                 90
 Number of molecular orbitals:                                                90

 Number of orbital functions:                                               1067
 Number of independent orbital functions:                                   1067

 Extrapolation method: ASPC


 SCF WAVEFUNCTION OPTIMIZATION

  ----------------------------------- OT ---------------------------------------
  Minimizer      : DIIS                : direct inversion
                                         in the iterative subspace
                                         using   7 DIIS vectors
                                         safer DIIS on
  Preconditioner : FULL_ALL            : diagonalization, state selective
  Precond_solver : DEFAULT
  stepsize       :    0.15000000                  energy_gap     :    0.08000000
  eps_taylor     :   0.10000E-15                  max_taylor     :             4
  ----------------------------------- OT ---------------------------------------

  Step     Update method      Time    Convergence         Total energy    Change
  ------------------------------------------------------------------------------
  Decoupling Energy:                                               0.0370014667
  Recoupling Energy:                                              -0.0063734172
     1 OT DIIS     0.15E+00   16.4     0.00075899      -255.7182133791 -2.56E+02
  Decoupling Energy:                                               0.0370082386
  Recoupling Energy:                                              -0.0063735355
     2 OT DIIS     0.15E+00    3.8     0.00032685      -255.7237312587 -5.52E-03
  Decoupling Energy:                                               0.0370087411
  Recoupling Energy:                                              -0.0063735590
     3 OT DIIS     0.15E+00    3.9     0.00019068      -255.7247685896 -1.04E-03
  Decoupling Energy:                                               0.0370199883
  Recoupling Energy:                                              -0.0063736817
     4 OT DIIS     0.15E+00    3.9     0.00006054      -255.7249610267 -1.92E-04
  Decoupling Energy:                                               0.0370216763
  Recoupling Energy:                                              -0.0063737045
     5 OT DIIS     0.15E+00    3.9     0.00001954      -255.7249775915 -1.66E-05
  Decoupling Energy:                                               0.0370210005
  Recoupling Energy:                                              -0.0063736984
     6 OT DIIS     0.15E+00    3.9     0.00000817      -255.7249798498 -2.26E-06
  Decoupling Energy:                                               0.0370221930
  Recoupling Energy:                                              -0.0063737124
     7 OT DIIS     0.15E+00    3.9     0.00000308      -255.7249803119 -4.62E-07
  Decoupling Energy:                                               0.0370222383
  Recoupling Energy:                                              -0.0063737132
     8 OT DIIS     0.15E+00    3.9     0.00000136      -255.7249803891 -7.72E-08
  Decoupling Energy:                                               0.0370224659
  Recoupling Energy:                                              -0.0063737159
     9 OT DIIS     0.15E+00    3.9     0.00000058      -255.7249804048 -1.57E-08

  *** SCF run converged in     9 steps ***


  Electronic density on regular grids:       -180.0000000000        0.0000000000
  Core density on regular grids:              180.9999999999       -0.0000000001
  Total charge density on r-space grids:        0.9999999999
  Total charge density g-space grids:           0.9999999999

  Overlap energy of the core charge distribution:               0.00002422739645
  Self energy of the core charge distribution:               -615.71576003586028
  Core Hamiltonian energy:                                    191.21094984083945
  Hartree energy:                                             248.07774823500290
  Exchange-correlation energy:                                -61.42683492324563
  Hartree-Fock Exchange energy:                               -18.12283148743728
  QM/MM Electrostatic energy:                                   0.25172373847514

  Total energy:                                              -255.72498040482921

  outer SCF iter =    1 RMS gradient =   0.58E-06 energy =       -255.7249804048
  outer SCF loop converged in   1 iterations or    9 steps

  Decoupling Energy:                                               0.0370224945
  Recoupling Energy:                                              -0.0063737164

 ENERGY| Total FORCE_EVAL ( QMMM ) energy [a.u.]:          -1059.962356574453679

 MD| ***************************************************************************
 MD| Step number                                                               1
 MD| Time [fs]                                                          1.000000
 MD| Conserved quantity [hartree]                            -0.841461427170E+03
 MD| ---------------------------------------------------------------------------
 MD|                                          Instantaneous             Averages
 MD| CPU time per MD step [s]                    303.152981           303.152981
 MD| Energy drift per atom [K]           0.138202490944E+02   0.000000000000E+00
 MD| Potential energy [hartree]         -0.105996235657E+04  -0.105996235657E+04
 MD| Total kinetic energy [hartree]      0.218500929404E+03   0.218500929404E+03
 MD| QM kinetic energy [hartree]         0.121347279210E+00   0.121347279210E+00
 MD| Total temperature [K]                       273.925013           273.925013
 MD| QM temperature [K]                          375.670533           375.670533
 MD| ***************************************************************************

  Translating the system in order to center the QM fragment in the QM box.

 Number of electrons:                                                        180
 Number of occupied orbitals:                                                 90
 Number of molecular orbitals:                                                90

 Number of orbital functions:                                               1067
 Number of independent orbital functions:                                   1067

 Extrapolation method: ASPC


 SCF WAVEFUNCTION OPTIMIZATION

  ----------------------------------- OT ---------------------------------------
  Minimizer      : DIIS                : direct inversion
                                         in the iterative subspace
                                         using   7 DIIS vectors
                                         safer DIIS on
  Preconditioner : FULL_ALL            : diagonalization, state selective
  Precond_solver : DEFAULT
  stepsize       :    0.15000000                  energy_gap     :    0.08000000
  eps_taylor     :   0.10000E-15                  max_taylor     :             4
  ----------------------------------- OT ---------------------------------------

  Step     Update method      Time    Convergence         Total energy    Change
  ------------------------------------------------------------------------------
  Decoupling Energy:                                               0.0370781910
  Recoupling Energy:                                              -0.0063743357
     1 OT DIIS     0.15E+00   16.3     0.00029256      -255.3622521152 -2.55E+02
  Decoupling Energy:                                               0.0370714480
  Recoupling Energy:                                              -0.0063742686
     2 OT DIIS     0.15E+00    3.9     0.00012380      -255.3630879212 -8.36E-04
  Decoupling Energy:                                               0.0370747197
  Recoupling Energy:                                              -0.0063743003
     3 OT DIIS     0.15E+00    3.9     0.00005679      -255.3632552488 -1.67E-04
  Decoupling Energy:                                               0.0370720776
  Recoupling Energy:                                              -0.0063742776
     4 OT DIIS     0.15E+00    3.9     0.00001757      -255.3632740412 -1.88E-05
  Decoupling Energy:                                               0.0370725483
  Recoupling Energy:                                              -0.0063742816
     5 OT DIIS     0.15E+00    3.8     0.00000682      -255.3632755682 -1.53E-06
  Decoupling Energy:                                               0.0370729654
  Recoupling Energy:                                              -0.0063742866
     6 OT DIIS     0.15E+00    3.9     0.00000313      -255.3632758259 -2.58E-07
  Decoupling Energy:                                               0.0370729502
  Recoupling Energy:                                              -0.0063742866
     7 OT DIIS     0.15E+00    3.9     0.00000105      -255.3632758869 -6.10E-08
  Decoupling Energy:                                               0.0370730081
  Recoupling Energy:                                              -0.0063742873
     8 OT DIIS     0.15E+00    3.9     0.00000048      -255.3632758971 -1.02E-08

  *** SCF run converged in     8 steps ***


  Electronic density on regular grids:       -180.0000000000       -0.0000000000
  Core density on regular grids:              180.9999999999       -0.0000000001
  Total charge density on r-space grids:        0.9999999998
  Total charge density g-space grids:           0.9999999998

  Overlap energy of the core charge distribution:               0.00005088940858
  Self energy of the core charge distribution:               -615.71576003586028
  Core Hamiltonian energy:                                    191.44418519076027
  Hartree energy:                                             247.94136802396483
  Exchange-correlation energy:                                -61.47332477435528
  Hartree-Fock Exchange energy:                               -18.13880652276862
  QM/MM Electrostatic energy:                                   0.57901133177799

  Total energy:                                              -255.36327589707250

  outer SCF iter =    1 RMS gradient =   0.48E-06 energy =       -255.3632758971
  outer SCF loop converged in   1 iterations or    8 steps

  Decoupling Energy:                                               0.0370730248
  Recoupling Energy:                                              -0.0063742875

 ENERGY| Total FORCE_EVAL ( QMMM ) energy [a.u.]:          -1061.235329278832978

 MD| ***************************************************************************
 MD| Step number                                                               2
 MD| Time [fs]                                                          2.000000
 MD| Conserved quantity [hartree]                            -0.842817774640E+03
 MD| ---------------------------------------------------------------------------
 MD|                                          Instantaneous             Averages
 MD| CPU time per MD step [s]                    143.349998           223.251489
 MD| Energy drift per atom [K]           0.112696744581E+02   0.563483722906E+01
 MD| Potential energy [hartree]         -0.106123532928E+04  -0.106059884293E+04
 MD| Total kinetic energy [hartree]      0.218417554639E+03   0.218459242022E+03
 MD| QM kinetic energy [hartree]         0.111578115612E+00   0.116462697411E+00
 MD| Total temperature [K]                       273.820490           273.872751
 MD| QM temperature [K]                          345.426864           360.548699
 MD| ***************************************************************************

  Translating the system in order to center the QM fragment in the QM box.

 Number of electrons:                                                        180
 Number of occupied orbitals:                                                 90
 Number of molecular orbitals:                                                90

 Number of orbital functions:                                               1067
 Number of independent orbital functions:                                   1067

 Extrapolation method: ASPC


 SCF WAVEFUNCTION OPTIMIZATION

  ----------------------------------- OT ---------------------------------------
  Minimizer      : DIIS                : direct inversion
                                         in the iterative subspace
                                         using   7 DIIS vectors
                                         safer DIIS on
  Preconditioner : FULL_ALL            : diagonalization, state selective
  Precond_solver : DEFAULT
  stepsize       :    0.15000000                  energy_gap     :    0.08000000
  eps_taylor     :   0.10000E-15                  max_taylor     :             4
  ----------------------------------- OT ---------------------------------------

  Step     Update method      Time    Convergence         Total energy    Change
  ------------------------------------------------------------------------------
  Decoupling Energy:                                               0.0371231622
  Recoupling Energy:                                              -0.0063748342
     1 OT DIIS     0.15E+00   16.4     0.00057313      -254.8840263863 -2.55E+02
  Decoupling Energy:                                               0.0371263751
  Recoupling Energy:                                              -0.0063748787
     2 OT DIIS     0.15E+00    3.8     0.00022567      -254.8871523434 -3.13E-03
  Decoupling Energy:                                               0.0371271034
  Recoupling Energy:                                              -0.0063748848
     3 OT DIIS     0.15E+00    3.9     0.00008231      -254.8877077012 -5.55E-04
  Decoupling Energy:                                               0.0371223206
  Recoupling Energy:                                              -0.0063748371
     4 OT DIIS     0.15E+00    3.9     0.00002753      -254.8877579459 -5.02E-05
  Decoupling Energy:                                               0.0371233258
  Recoupling Energy:                                              -0.0063748480
     5 OT DIIS     0.15E+00    3.9     0.00001035      -254.8877617528 -3.81E-06
  Decoupling Energy:                                               0.0371231595
  Recoupling Energy:                                              -0.0063748450
     6 OT DIIS     0.15E+00    3.9     0.00000439      -254.8877623377 -5.85E-07
  Decoupling Energy:                                               0.0371230837
  Recoupling Energy:                                              -0.0063748446
     7 OT DIIS     0.15E+00    3.9     0.00000136      -254.8877624277 -9.00E-08
  Decoupling Energy:                                               0.0371230862
  Recoupling Energy:                                              -0.0063748447
     8 OT DIIS     0.15E+00    3.9     0.00000059      -254.8877624385 -1.08E-08

  *** SCF run converged in     8 steps ***


  Electronic density on regular grids:       -180.0000000003       -0.0000000003
  Core density on regular grids:              180.9999999999       -0.0000000001
  Total charge density on r-space grids:        0.9999999996
  Total charge density g-space grids:           0.9999999996

  Overlap energy of the core charge distribution:               0.00005124520066
  Self energy of the core charge distribution:               -615.71576003586028
  Core Hamiltonian energy:                                    191.49125555165955
  Hartree energy:                                             247.90728341788224
  Exchange-correlation energy:                                -61.48094642672196
  Hartree-Fock Exchange energy:                               -18.14140193505925
  QM/MM Electrostatic energy:                                   1.05175574436442

  Total energy:                                              -254.88776243853462

  outer SCF iter =    1 RMS gradient =   0.59E-06 energy =       -254.8877624385
  outer SCF loop converged in   1 iterations or    8 steps

  Decoupling Energy:                                               0.0371230855
  Recoupling Energy:                                              -0.0063748446

 ENERGY| Total FORCE_EVAL ( QMMM ) energy [a.u.]:          -1082.045340803327235

 MD| ***************************************************************************
 MD| Step number                                                               3
 MD| Time [fs]                                                          3.000000
 MD| Conserved quantity [hartree]                            -0.846392350561E+03
 MD| ---------------------------------------------------------------------------
 MD|                                          Instantaneous             Averages
 MD| CPU time per MD step [s]                    144.184609           196.895863
 MD| Energy drift per atom [K]           0.454778137070E+01   0.527248527627E+01
 MD| Potential energy [hartree]         -0.108204534080E+04  -0.106774767555E+04
 MD| Total kinetic energy [hartree]      0.235652990242E+03   0.224190491428E+03
 MD| QM kinetic energy [hartree]         0.117356039636E+00   0.116760478153E+00
 MD| Total temperature [K]                       295.427798           281.057767
 MD| QM temperature [K]                          363.314334           361.470577
 MD| ***************************************************************************

  Translating the system in order to center the QM fragment in the QM box.

 Number of electrons:                                                        180
 Number of occupied orbitals:                                                 90
 Number of molecular orbitals:                                                90

 Number of orbital functions:                                               1067
 Number of independent orbital functions:                                   1067

 Extrapolation method: ASPC


 SCF WAVEFUNCTION OPTIMIZATION

  ----------------------------------- OT ---------------------------------------
  Minimizer      : DIIS                : direct inversion
                                         in the iterative subspace
                                         using   7 DIIS vectors
                                         safer DIIS on
  Preconditioner : FULL_ALL            : diagonalization, state selective
  Precond_solver : DEFAULT
  stepsize       :    0.15000000                  energy_gap     :    0.08000000
  eps_taylor     :   0.10000E-15                  max_taylor     :             4
  ----------------------------------- OT ---------------------------------------

  Step     Update method      Time    Convergence         Total energy    Change
  ------------------------------------------------------------------------------
  Decoupling Energy:                                               0.0371653926
  Recoupling Energy:                                              -0.0063753273
     1 OT DIIS     0.15E+00   16.5     0.00026686      -254.3373006105 -2.54E+02
  Decoupling Energy:                                               0.0371743509
  Recoupling Energy:                                              -0.0063754110
     2 OT DIIS     0.15E+00    3.9     0.00010702      -254.3379925875 -6.92E-04
  Decoupling Energy:                                               0.0371689943
  Recoupling Energy:                                              -0.0063753554
     3 OT DIIS     0.15E+00    3.9     0.00003976      -254.3381211570 -1.29E-04
  Decoupling Energy:                                               0.0371715344
  Recoupling Energy:                                              -0.0063753820
     4 OT DIIS     0.15E+00    3.9     0.00001257      -254.3381309714 -9.81E-06
  Decoupling Energy:                                               0.0371702341
  Recoupling Energy:                                              -0.0063753690
     5 OT DIIS     0.15E+00    3.9     0.00000537      -254.3381317989 -8.28E-07
  Decoupling Energy:                                               0.0371705306
  Recoupling Energy:                                              -0.0063753714
     6 OT DIIS     0.15E+00    3.8     0.00000190      -254.3381319349 -1.36E-07
  Decoupling Energy:                                               0.0371705473
  Recoupling Energy:                                              -0.0063753718
     7 OT DIIS     0.15E+00    3.9     0.00000064      -254.3381319536 -1.87E-08

  *** SCF run converged in     7 steps ***


  Electronic density on regular grids:       -179.9999999999        0.0000000001
  Core density on regular grids:              180.9999999999       -0.0000000001
  Total charge density on r-space grids:        1.0000000000
  Total charge density g-space grids:           1.0000000000

  Overlap energy of the core charge distribution:               0.00002358472615
  Self energy of the core charge distribution:               -615.71576003586028
  Core Hamiltonian energy:                                    191.34733544573947
  Hartree energy:                                             247.97609006591941
  Exchange-correlation energy:                                -61.44937192068772
  Hartree-Fock Exchange energy:                               -18.13041942577144
  QM/MM Electrostatic energy:                                   1.63397033232027

  Total energy:                                              -254.33813195361415

  outer SCF iter =    1 RMS gradient =   0.64E-06 energy =       -254.3381319536
  outer SCF loop converged in   1 iterations or    7 steps

  Decoupling Energy:                                               0.0371704698
  Recoupling Energy:                                              -0.0063753710

 ENERGY| Total FORCE_EVAL ( QMMM ) energy [a.u.]:          -1079.714053584990552

 MD| ***************************************************************************
 MD| Step number                                                               4
 MD| Time [fs]                                                          4.000000
 MD| Conserved quantity [hartree]                            -0.842113597201E+03
 MD| ---------------------------------------------------------------------------
 MD|                                          Instantaneous             Averages
 MD| CPU time per MD step [s]                    139.758288           182.611469
 MD| Energy drift per atom [K]           0.125938610360E+02   0.710282921619E+01
 MD| Potential energy [hartree]         -0.107971405358E+04  -0.107073927006E+04
 MD| Total kinetic energy [hartree]      0.237600456384E+03   0.227542982667E+03
 MD| QM kinetic energy [hartree]         0.148328291088E+00   0.124652431386E+00
 MD| Total temperature [K]                       297.869251           285.260638
 MD| QM temperature [K]                          459.199156           385.902722
 MD| ***************************************************************************

  Translating the system in order to center the QM fragment in the QM box.

 Number of electrons:                                                        180
 Number of occupied orbitals:                                                 90
 Number of molecular orbitals:                                                90

 Number of orbital functions:                                               1067
 Number of independent orbital functions:                                   1067

 Extrapolation method: ASPC


 SCF WAVEFUNCTION OPTIMIZATION

  ----------------------------------- OT ---------------------------------------
  Minimizer      : DIIS                : direct inversion
                                         in the iterative subspace
                                         using   7 DIIS vectors
                                         safer DIIS on
  Preconditioner : FULL_ALL            : diagonalization, state selective
  Precond_solver : DEFAULT
  stepsize       :    0.15000000                  energy_gap     :    0.08000000
  eps_taylor     :   0.10000E-15                  max_taylor     :             4
  ----------------------------------- OT ---------------------------------------

  Step     Update method      Time    Convergence         Total energy    Change
  ------------------------------------------------------------------------------
  Decoupling Energy:                                               0.0372103547
  Recoupling Energy:                                              -0.0063758465
     1 OT DIIS     0.15E+00   16.4     0.00032139      -253.7449326363 -2.54E+02
  Decoupling Energy:                                               0.0372070233
  Recoupling Energy:                                              -0.0063758000
     2 OT DIIS     0.15E+00    3.8     0.00013155      -253.7458500789 -9.17E-04
  Decoupling Energy:                                               0.0372094893
  Recoupling Energy:                                              -0.0063758229
     3 OT DIIS     0.15E+00    3.9     0.00006219      -253.7460086926 -1.59E-04
  Decoupling Energy:                                               0.0372087303
  Recoupling Energy:                                              -0.0063758144
     4 OT DIIS     0.15E+00    3.9     0.00002414      -253.7460397512 -3.11E-05
  Decoupling Energy:                                               0.0372096153
  Recoupling Energy:                                              -0.0063758219
     5 OT DIIS     0.15E+00    3.9     0.00000524      -253.7460422463 -2.50E-06
  Decoupling Energy:                                               0.0372092998
  Recoupling Energy:                                              -0.0063758193
     6 OT DIIS     0.15E+00    3.9     0.00000250      -253.7460423897 -1.43E-07
  Decoupling Energy:                                               0.0372092956
  Recoupling Energy:                                              -0.0063758190
     7 OT DIIS     0.15E+00    3.9     0.00000089      -253.7460424216 -3.18E-08

  *** SCF run converged in     7 steps ***


  Electronic density on regular grids:       -180.0000000000       -0.0000000000
  Core density on regular grids:              180.9999999999       -0.0000000001
  Total charge density on r-space grids:        0.9999999998
  Total charge density g-space grids:           0.9999999998

  Overlap energy of the core charge distribution:               0.00001841791229
  Self energy of the core charge distribution:               -615.71576003586028
  Core Hamiltonian energy:                                    191.22474241653020
  Hartree energy:                                             248.04795355629383
  Exchange-correlation energy:                                -61.41799174015580
  Hartree-Fock Exchange energy:                               -18.11952353576047
  QM/MM Electrostatic energy:                                   2.23451849947182

  Total energy:                                              -253.74604242156838

  outer SCF iter =    1 RMS gradient =   0.89E-06 energy =       -253.7460424216
  outer SCF loop converged in   1 iterations or    7 steps

  Decoupling Energy:                                               0.0372093272
  Recoupling Energy:                                              -0.0063758194

 ENERGY| Total FORCE_EVAL ( QMMM ) energy [a.u.]:          -1094.307011686943952

 MD| ***************************************************************************
 MD| Step number                                                               5
 MD| Time [fs]                                                          5.000000
 MD| Conserved quantity [hartree]                            -0.848389415702E+03
 MD| ---------------------------------------------------------------------------
 MD|                                          Instantaneous             Averages
 MD| CPU time per MD step [s]                    140.421286           174.173432
 MD| Energy drift per atom [K]           0.792354528124E+00   0.584073427858E+01
 MD| Potential energy [hartree]         -0.109430701169E+04  -0.107545281839E+04
 MD| Total kinetic energy [hartree]      0.245917595985E+03   0.231217905331E+03
 MD| QM kinetic energy [hartree]         0.157565814308E+00   0.131235107971E+00
 MD| Total temperature [K]                       308.296083           289.867727
 MD| QM temperature [K]                          487.796956           406.281569
 MD| ***************************************************************************

  Translating the system in order to center the QM fragment in the QM box.

 Number of electrons:                                                        180
 Number of occupied orbitals:                                                 90
 Number of molecular orbitals:                                                90

 Number of orbital functions:                                               1067
 Number of independent orbital functions:                                   1067

 Extrapolation method: ASPC


 SCF WAVEFUNCTION OPTIMIZATION

  ----------------------------------- OT ---------------------------------------
  Minimizer      : DIIS                : direct inversion
                                         in the iterative subspace
                                         using   7 DIIS vectors
                                         safer DIIS on
  Preconditioner : FULL_ALL            : diagonalization, state selective
  Precond_solver : DEFAULT
  stepsize       :    0.15000000                  energy_gap     :    0.08000000
  eps_taylor     :   0.10000E-15                  max_taylor     :             4
  ----------------------------------- OT ---------------------------------------

  Step     Update method      Time    Convergence         Total energy    Change
  ------------------------------------------------------------------------------
  Decoupling Energy:                                               0.0372438162
  Recoupling Energy:                                              -0.0063762149
     1 OT DIIS     0.15E+00   16.5     0.00048989      -253.1925137879 -2.53E+02
  Decoupling Energy:                                               0.0372420874
  Recoupling Energy:                                              -0.0063762280
     2 OT DIIS     0.15E+00    3.8     0.00019226      -253.1946649879 -2.15E-03
  Decoupling Energy:                                               0.0372395893
  Recoupling Energy:                                              -0.0063761942
     3 OT DIIS     0.15E+00    3.9     0.00008075      -253.1950226132 -3.58E-04
  Decoupling Energy:                                               0.0372399161
  Recoupling Energy:                                              -0.0063761993
     4 OT DIIS     0.15E+00    3.9     0.00002240      -253.1950815649 -5.90E-05
  Decoupling Energy:                                               0.0372387849
  Recoupling Energy:                                              -0.0063761869
     5 OT DIIS     0.15E+00    3.9     0.00000833      -253.1950841280 -2.56E-06
  Decoupling Energy:                                               0.0372394871
  Recoupling Energy:                                              -0.0063761929
     6 OT DIIS     0.15E+00    3.9     0.00000286      -253.1950844836 -3.56E-07
  Decoupling Energy:                                               0.0372392277
  Recoupling Energy:                                              -0.0063761905
     7 OT DIIS     0.15E+00    3.9     0.00000086      -253.1950845240 -4.03E-08

  *** SCF run converged in     7 steps ***


  Electronic density on regular grids:       -180.0000000000       -0.0000000000
  Core density on regular grids:              180.9999999999       -0.0000000001
  Total charge density on r-space grids:        0.9999999998
  Total charge density g-space grids:           0.9999999998

  Overlap energy of the core charge distribution:               0.00001843294515
  Self energy of the core charge distribution:               -615.71576003586028
  Core Hamiltonian energy:                                    191.21896228763120
  Hartree energy:                                             248.05852491713478
  Exchange-correlation energy:                                -61.40903035492346
  Hartree-Fock Exchange energy:                               -18.11645444539083
  QM/MM Electrostatic energy:                                   2.76865467451346

  Total energy:                                              -253.19508452395002

  outer SCF iter =    1 RMS gradient =   0.86E-06 energy =       -253.1950845240
  outer SCF loop converged in   1 iterations or    7 steps

  Decoupling Energy:                                               0.0372392195
  Recoupling Energy:                                              -0.0063761903

 ENERGY| Total FORCE_EVAL ( QMMM ) energy [a.u.]:          -1057.339964395751167

 MD| ***************************************************************************
 MD| Step number                                                               6
 MD| Time [fs]                                                          6.000000
 MD| Conserved quantity [hartree]                            -0.842900322976E+03
 MD| ---------------------------------------------------------------------------
 MD|                                          Instantaneous             Averages
 MD| CPU time per MD step [s]                    140.171647           168.506468
 MD| Energy drift per atom [K]           0.111144445499E+02   0.671968599046E+01
 MD| Potential energy [hartree]         -0.105733996440E+04  -0.107243400939E+04
 MD| Total kinetic energy [hartree]      0.214439641419E+03   0.228421528012E+03
 MD| QM kinetic energy [hartree]         0.141133085807E+00   0.132884770943E+00
 MD| Total temperature [K]                       268.833555           286.362032
 MD| QM temperature [K]                          436.924024           411.388645
 MD| ***************************************************************************

 -------------------------------------------------------------------------------
 -                                                                             -
 -                                DBCSR STATISTICS                             -
 -                                                                             -
 -------------------------------------------------------------------------------
 COUNTER                                    TOTAL       BLAS       SMM       ACC
 flops     9 x    26 x    26              2810808     100.0%      0.0%      0.0%
 flops    22 x    26 x    26              7287280     100.0%      0.0%      0.0%
 flops     9 x    32 x    32              8515584     100.0%      0.0%      0.0%
 flops    26 x    26 x    26             13709280     100.0%      0.0%      0.0%
 flops    22 x    32 x    32             22077440     100.0%      0.0%      0.0%
 flops    26 x    26 x    32             33745920     100.0%      0.0%      0.0%
 flops    26 x    32 x    26             33745920     100.0%      0.0%      0.0%
 flops    32 x    26 x    26             33745920     100.0%      0.0%      0.0%
 flops    26 x    26 x   128             39975936     100.0%      0.0%      0.0%
 flops   128 x    26 x    26             48455680     100.0%      0.0%      0.0%
 flops    32 x    32 x    26             83066880     100.0%      0.0%      0.0%
 flops    26 x    32 x    32             83066880     100.0%      0.0%      0.0%
 flops    32 x    26 x    32             83066880     100.0%      0.0%      0.0%
 flops    26 x    26 x   137             85573488     100.0%      0.0%      0.0%
 flops    26 x    32 x   128             98402304     100.0%      0.0%      0.0%
 flops    32 x    26 x   128             98402304     100.0%      0.0%      0.0%
 flops   137 x    26 x    26            103725440     100.0%      0.0%      0.0%
 flops   128 x    26 x   128            107347968     100.0%      0.0%      0.0%
 flops   128 x    26 x    32            119275520     100.0%      0.0%      0.0%
 flops   128 x    32 x    26            119275520     100.0%      0.0%      0.0%
 flops     9 x     9 x    26            165405240     100.0%      0.0%      0.0%
 flops    32 x    32 x    32            204472320     100.0%      0.0%      0.0%
 flops    26 x    26 x   133            207687480     100.0%      0.0%      0.0%
 flops    26 x    32 x   137            210642432     100.0%      0.0%      0.0%
 flops    32 x    26 x   137            210642432     100.0%      0.0%      0.0%
 flops   128 x    26 x   137            229791744     100.0%      0.0%      0.0%
 flops   137 x    26 x   128            229791744     100.0%      0.0%      0.0%
 flops    32 x    32 x   128            242221056     100.0%      0.0%      0.0%
 flops   133 x    26 x    26            251742400     100.0%      0.0%      0.0%
 flops   137 x    26 x    32            255324160     100.0%      0.0%      0.0%
 flops   137 x    32 x    26            255324160     100.0%      0.0%      0.0%
 flops   128 x    32 x   128            264241152     100.0%      0.0%      0.0%
 flops   128 x    32 x    32            293601280     100.0%      0.0%      0.0%
 flops     9 x     9 x    32            407151360     100.0%      0.0%      0.0%
 flops    22 x     9 x    26            415855440     100.0%      0.0%      0.0%
 flops     9 x    22 x    26            416576160     100.0%      0.0%      0.0%
 flops   137 x    26 x   137            491897952     100.0%      0.0%      0.0%
 flops    26 x    32 x   133            511230720     100.0%      0.0%      0.0%
 flops    32 x    26 x   133            511230720     100.0%      0.0%      0.0%
 flops    32 x    32 x   137            518504448     100.0%      0.0%      0.0%
 flops   133 x    26 x   128            557706240     100.0%      0.0%      0.0%
 flops   128 x    26 x   133            557706240     100.0%      0.0%      0.0%
 flops   128 x    32 x   137            565641216     100.0%      0.0%      0.0%
 flops   137 x    32 x   128            565641216     100.0%      0.0%      0.0%
 flops   133 x    32 x    26            619673600     100.0%      0.0%      0.0%
 flops   133 x    26 x    32            619673600     100.0%      0.0%      0.0%
 flops   137 x    32 x    32            628490240     100.0%      0.0%      0.0%
 flops     9 x    26 x     9            802701900     100.0%      0.0%      0.0%
 flops    22 x     9 x    32           1023644160     100.0%      0.0%      0.0%
 flops     9 x    22 x    32           1025418240     100.0%      0.0%      0.0%
 flops    22 x    22 x    26           1109908800     100.0%      0.0%      0.0%
 flops   133 x    26 x   137           1193839920     100.0%      0.0%      0.0%
 flops   137 x    26 x   133           1193839920     100.0%      0.0%      0.0%
 flops   137 x    32 x   137           1210825728     100.0%      0.0%      0.0%
 flops    32 x    32 x   133           1258414080     100.0%      0.0%      0.0%
 flops   133 x    32 x   128           1372815360     100.0%      0.0%      0.0%
 flops   128 x    32 x   133           1372815360     100.0%      0.0%      0.0%
 flops   133 x    32 x    32           1525350400     100.0%      0.0%      0.0%
 flops     9 x    32 x     9           1975881600     100.0%      0.0%      0.0%
 flops    22 x    26 x     9           2081079000     100.0%      0.0%      0.0%
 flops     9 x    26 x    22           2081079000     100.0%      0.0%      0.0%
 flops    22 x    22 x    32           2732083200     100.0%      0.0%      0.0%
 flops   133 x    26 x   133           2897458200     100.0%      0.0%      0.0%
 flops   133 x    32 x   137           2938682880     100.0%      0.0%      0.0%
 flops   137 x    32 x   133           2938682880     100.0%      0.0%      0.0%
 flops    22 x    32 x     9           5122656000     100.0%      0.0%      0.0%
 flops     9 x    32 x    22           5122656000     100.0%      0.0%      0.0%
 flops    22 x    26 x    22           5395390000     100.0%      0.0%      0.0%
 flops   133 x    32 x   133           7132204800     100.0%      0.0%      0.0%
 flops    22 x    32 x    22          13280960000     100.0%      0.0%      0.0%
 flops inhomo. stacks                           0       0.0%      0.0%      0.0%
 flops total                        78.421527E+09     100.0%      0.0%      0.0%
 flops max/rank                      3.655448E+09     100.0%      0.0%      0.0%
 matmuls inhomo. stacks                         0       0.0%      0.0%      0.0%
 matmuls total                            2993202     100.0%      0.0%      0.0%
 number of processed stacks                260010     100.0%      0.0%      0.0%
 average stack size                                    11.5       0.0       0.0
 marketing flops                    85.671830E+09
 -------------------------------------------------------------------------------
 # multiplications                           1286
 max memory usage/rank               1.836200E+09
 # max total images/rank                        1
 # max 3D layers                                1
 # MPI messages exchanged                 1152256
 MPI messages size (bytes):
  total size                        26.071108E+09
  min size                           0.000000E+00
  max size                         150.152000E+03
  average size                      22.626143E+03
 MPI breakdown and total messages size (bytes):
             size <=      128              750561                        0
       128 < size <=     8192               66927                481883808
      8192 < size <=    32768               83300               2394641760
     32768 < size <=   131072              118727               4280966144
    131072 < size <=  4194304              132741              18914201880
   4194304 < size <= 16777216                   0                        0
  16777216 < size                               0                        0
 -------------------------------------------------------------------------------
 -                                                                             -
 -                      DBCSR MESSAGE PASSING PERFORMANCE                      -
 -                                                                             -
 -------------------------------------------------------------------------------
 ROUTINE             CALLS      AVE VOLUME [Bytes]
 MP_Bcast               71                     12.
 MP_Allreduce         6890                      8.
 MP_Alltoall          5344                  12862.
 MP_ISend            41124                  13423.
 MP_IRecv            41124                  12856.
 -------------------------------------------------------------------------------

 -------------------------------------------------------------------------------
 -                                                                             -
 -                                GRID STATISTICS                              -
 -                                                                             -
 -------------------------------------------------------------------------------
 LP    KERNEL             BACKEND                              COUNT     PERCENT
 2     collocate ortho    REF                                1126269      19.05%
 2     integrate ortho    REF                                1106014      18.71%
 1     collocate ortho    REF                                 943978      15.97%
 1     integrate ortho    REF                                 870340      14.72%
 3     integrate ortho    REF                                 570062       9.64%
 3     collocate ortho    REF                                 500530       8.47%
 0     collocate ortho    REF                                 281245       4.76%
 0     integrate ortho    REF                                 249988       4.23%
 4     integrate ortho    REF                                 121240       2.05%
 4     collocate ortho    REF                                  73823       1.25%
 0     collocate general  REF                                  30464       0.52%
 1     integrate general  REF                                  30464       0.52%
 5     integrate ortho    REF                                   8201       0.14%
 -------------------------------------------------------------------------------

 MEMORY| Estimated peak process memory [MiB]                                1837

 -------------------------------------------------------------------------------
 -                                                                             -
 -                         MESSAGE PASSING PERFORMANCE                         -
 -                                                                             -
 -------------------------------------------------------------------------------

 ROUTINE             CALLS      AVE VOLUME [Bytes]
 MP_Group                8
 MP_Bcast             6942               10565479.
 MP_Allreduce         2477                1659281.
 MP_Sync               437
 MP_Alltoall          1344               17978175.
 MP_ISendRecv        26019                  64202.
 MP_Wait             33670
 MP_comm_split          21
 MP_ISend             6475                 556371.
 MP_IRecv             6468                 556115.
 MP_Recv                49                 102432.
 -------------------------------------------------------------------------------


 -------------------------------------------------------------------------------
 -                                                                             -
 -                           R E F E R E N C E S                               -
 -                                                                             -
 -------------------------------------------------------------------------------
 
 CP2K version 8.2, the CP2K developers group (2021).
 CP2K is freely available from https://www.cp2k.org/ .

 Kuehne,Thomas D.; Iannuzzi,Marcella; Del Ben,Mauro;
 Rybkin,Vladimir V.; Seewald,Patrick; Stein,Frederick; Laino,Teodoro;
 Khaliullin,Rustam Z.; Schuett,Ole; Schiffmann,Florian; Golze,Dorothea;
 Wilhelm,Jan; Chulkov,Sergey; Bani-Hashemian,Mohammad Hossein;
 Weber,Valery; Borstnik,Urban; Taillefumier,Mathieu;
 Jakobovits,Alice Shoshana; Lazzaro,Alfio; Pabst,Hans; Mueller,Tiziano;
 Schade,Robert; Guidon,Manuel; Andermatt,Samuel; Holmberg,Nico;
 Schenter,Gregory K.; Hehn,Anna; Bussy,Augustin; Belleflamme,Fabian;
 Tabacchi,Gloria; Gloess,Andreas; Lass,Michael; Bethune,Iain;
 Mundy,Christopher J.; Plessl,Christian; Watkins,Matt;
 VandeVondele,Joost; Krack,Matthias; Hutter,Juerg. 
 The Journal of Chemical Physics, 152 (19), (2020). 
 CP2K: An electronic structure and molecular dynamics software package -
 Quickstep: Efficient and accurate electronic structure calculations.
 https://doi.org/10.1063/5.0007045

 Schuett, Ole; Messmer, Peter; Hutter, Juerg; VandeVondele, Joost. 
 Electronic Structure Calculations on Graphics Processing Units, John
 Wiley & Sons, Ltd, 173-190 (2016). 
 GPU-Accelerated Sparse Matrix-Matrix Multiplication for
 Linear Scaling Density Functional Theory.
 https://doi.org/10.1002/9781118670712.ch8

 Borstnik, U; VandeVondele, J; Weber, V; Hutter, J. 
 PARALLEL COMPUTING, 40 (5-6), 47-58 (2014). 
 Sparse matrix multiplication: The distributed block-compressed sparse
 row library.
 https://doi.org/10.1016/j.parco.2014.03.012

 Hutter, J; Iannuzzi, M; Schiffmann, F; VandeVondele, J. 
 WIREs Comput Mol Sci., 4 (1), 15-25 (2014). 
 CP2K: atomistic simulations of condensed matter systems.
 https://doi.org/10.1002/wcms.1159

 Marek, A; Blum, V; Johanni, R; Havu, V; Lang, B; Auckenthaler, T;
 Heinecke, A; Bungartz, H; Lederer, H. 
 Journal of Physics: Condensed Matter, 26 (21), (2014). 
 The ELPA library: scalable parallel eigenvalue solutions for
 electronic structure
 theory and computational science.
 https://doi.org/10.1088/0953-8984/26/21/213201

 Guidon, M; Hutter, J; VandeVondele, J. 
 JOURNAL OF CHEMICAL THEORY AND COMPUTATION, 5 (11), 3010-3021 (2009). 
 Robust Periodic Hartree-Fock Exchange for Large-Scale Simulations Using
 Gaussian Basis Sets.
 https://doi.org/10.1021/ct900494g

 Guidon, M; Schiffmann, F; Hutter, J; VandeVondele, J. 
 JOURNAL OF CHEMICAL PHYSICS, 128 (21), 214104 (2008). 
 Ab initio molecular dynamics using hybrid density functionals.
 https://doi.org/10.1063/1.2931945

 Kuhne, TD; Krack, M; Mohamed, FR; Parrinello, M. 
 PHYSICAL REVIEW LETTERS, 98 (6), 066401 (2007). 
 Efficient and accurate Car-Parrinello-like approach to
 Born-Oppenheimer molecular dynamics.
 https://doi.org/10.1103/PhysRevLett.98.066401

 Laino, T; Mohamed, F; Laio, A; Parrinello, M. 
 JOURNAL OF CHEMICAL THEORY AND COMPUTATION, 2 (5), 1370-1378 (2006). 
 An efficient linear-scaling electrostatic coupling for treating
 periodic boundary conditions in QM/MM simulations.
 https://doi.org/10.1021/ct6001169

 Laino, T; Mohamed, F; Laio, A; Parrinello, M. 
 JOURNAL OF CHEMICAL THEORY AND COMPUTATION, 1 (6), 1176-1184 (2005). 
 An efficient real space multigrid QM/MM electrostatic coupling.
 https://doi.org/10.1021/ct050123f

 Krack, M. 
 THEORETICAL CHEMISTRY ACCOUNTS, 114 (1-3), 145-152 (2005). 
 Pseudopotentials for H to Kr optimized for gradient-corrected
 exchange-correlation functionals.
 https://doi.org/10.1007/s00214-005-0655-y

 VandeVondele, J; Krack, M; Mohamed, F; Parrinello, M; Chassaing, T;
 Hutter, J. COMPUTER PHYSICS COMMUNICATIONS, 167 (2), 103-128 (2005). 
 QUICKSTEP: Fast and accurate density functional calculations using a
 mixed Gaussian and plane waves approach.
 https://doi.org/10.1016/j.cpc.2004.12.014

 Frigo, M; Johnson, SG. 
 PROCEEDINGS OF THE IEEE, 93 (2), 216-231 (2005). 
 The design and implementation of FFTW3.
 https://doi.org/10.1109/JPROC.2004.840301

 Kolafa, J. 
 JOURNAL OF COMPUTATIONAL CHEMISTRY, 25 (3), 335-342 (2004). 
 Time-reversible always stable predictor-corrector method for molecular dynamics of polarizable molecules.
 https://doi.org/10.1002/jcc.10385

 VandeVondele, J; Hutter, J. 
 JOURNAL OF CHEMICAL PHYSICS, 118 (10), 4365-4369 (2003). 
 An efficient orbital transformation method for electronic structure
 calculations.
 https://doi.org/10.1063/1.1543154

 Hartwigsen, C; Goedecker, S; Hutter, J. 
 PHYSICAL REVIEW B, 58 (7), 3641-3662 (1998). 
 Relativistic separable dual-space Gaussian pseudopotentials from H to Rn.
 https://doi.org/10.1103/PhysRevB.58.3641

 Lippert, G; Hutter, J; Parrinello, M. 
 MOLECULAR PHYSICS, 92 (3), 477-487 (1997). 
 A hybrid Gaussian and plane wave density functional scheme.
 https://doi.org/10.1080/002689797170220

 Perdew, JP; Burke, K; Ernzerhof, M. 
 PHYSICAL REVIEW LETTERS, 77 (18), 3865-3868 (1996). 
 Generalized gradient approximation made simple.
 https://doi.org/10.1103/PhysRevLett.77.3865

 Goedecker, S; Teter, M; Hutter, J. 
 PHYSICAL REVIEW B, 54 (3), 1703-1710 (1996). 
 Separable dual-space Gaussian pseudopotentials.
 https://doi.org/10.1103/PhysRevB.54.1703

 ESSMANN, U; PERERA, L; BERKOWITZ, ML; DARDEN, T; LEE, H; PEDERSEN, LG. 
 JOURNAL OF CHEMICAL PHYSICS, 103 (19), 8577-8593 (1995). 
 A SMOOTH PARTICLE MESH EWALD METHOD.
 https://doi.org/10.1063/1.470117

 BLOCHL, PE. 
 JOURNAL OF CHEMICAL PHYSICS, 103 (17), 7422-7428 (1995). 
 ELECTROSTATIC DECOUPLING OF PERIODIC IMAGES OF PLANE-WAVE-EXPANDED
 DENSITIES AND DERIVED ATOMIC POINT CHARGES.
 https://doi.org/10.1063/1.470314


 -------------------------------------------------------------------------------
 -                                                                             -
 -                                T I M I N G                                  -
 -                                                                             -
 -------------------------------------------------------------------------------
 SUBROUTINE                       CALLS  ASD         SELF TIME        TOTAL TIME
                                MAXIMUM       AVERAGE  MAXIMUM  AVERAGE  MAXIMUM
 CP2K                                 1  1.0    0.498    0.618 1071.919 1071.920
 qs_mol_dyn_low                       1  2.0    0.102    0.104 1012.375 1014.106
 velocity_verlet                      6  3.0    0.189    0.204  854.739  854.789
 qs_forces                            7  3.9    0.001    0.002  616.859  616.862
 rebuild_ks_matrix                   63  8.5    0.000    0.001  576.186  576.200
 qs_ks_build_kohn_sham_matrix        63  9.5    0.012    0.013  576.186  576.199
 hfx_ks_matrix                       63 10.5    0.003    0.003  462.343  462.343
 qs_energies                          7  4.9    0.001    0.001  319.626  319.630
 scf_env_do_scf                       7  5.9    0.000    0.001  313.479  313.479
 qs_ks_update_qs_env_forces           7  4.9    0.000    0.000  296.993  296.994
 qs_ks_update_qs_env                 63  7.8    0.001    0.001  279.201  279.213
 derivatives_four_center              7  8.9    0.020    0.315  271.694  271.694
 derivatives_four_center_main         7  9.9    0.002    0.002  271.024  271.024
 derivatives_four_center_bin        461 10.9  268.352  269.625  268.352  269.625
 qmmm_forces                          7  3.9    0.129    0.133  225.005  225.009
 qmmm_forces_with_gaussian            7  4.9    7.121    7.524  222.141  223.858
 scf_env_do_scf_inner_loop           56  6.8    0.001    0.004  194.820  194.833
 integrate_four_center               63 11.5    0.386    0.988  190.638  190.639
 integrate_four_center_main          63 12.5    0.018    0.019  183.278  184.370
 integrate_four_center_bin         4032 13.5  183.260  184.352  183.260  184.352
 qmmm_el_coupling                     7  3.9    0.000    0.000  159.338  160.462
 qmmm_elec_with_gaussian              7  4.9    5.881    6.404  159.314  160.438
 qmmm_force_with_gaussian_low         7  5.9    0.000    0.000  122.839  123.038
 init_scf_loop                        7  6.9    0.000    0.000  118.641  118.642
 qmmm_forces_gaussian_low_R           7  6.9    0.000    0.000  103.114  103.291
 qmmm_forces_with_gaussian_LG         7  7.9  103.114  103.291  103.114  103.291
 pw_transfer                       1337 12.0    0.123    0.147   84.745   88.001
 fft_wrap_pw1pw2                   1113 13.1    0.018    0.022   82.710   85.953
 fft_wrap_pw1pw2_200                707 14.4    9.875   10.207   81.393   84.551
 pw_restrict_s3                      21  5.9   21.294   22.064   81.844   83.606
 qmmm_elec_with_gaussian_low          7  5.9    0.000    0.000   81.014   83.395
 qmmm_elec_gaussian_low_R             7  6.9    0.000    0.008   72.496   74.878
 qmmm_elec_with_gaussian_LG           7  7.9   72.496   74.878   72.496   74.878
 qs_vxc_create                       63 10.5    0.002    0.003   68.300   68.308
 xc_vxc_pw_create                    63 11.5    1.048    1.663   68.298   68.306
 pw_integral_ab                    2967  7.5   65.976   68.165   66.221   68.294
 qmmm_elec_with_gaussian:spline       7  5.9    0.000    0.000   60.623   61.756
 pw_prolongate_s3                    21  6.9   15.692   16.041   60.623   61.756
 fft3d_ps                          1113 15.1   35.244   36.376   57.972   61.689
 qmmm_env_create                      1  2.0    9.939   10.010   57.332   57.336
 fist_init                            1  3.0    0.020    0.030   43.098   43.098
 qs_rho_update_rho                   63  7.9    0.001    0.001   35.509   35.519
 calculate_rho_elec                  63  8.9    0.126    0.136   35.508   35.519
 xc_rho_set_and_dset_create          63 12.5    0.585    0.594   31.337   34.069
 density_rs2pw                       63  9.9    0.005    0.005   30.629   32.257
 rs_pw_transfer                     546 11.8    0.011    0.013   27.553   29.246
 sum_up_and_integrate                63 10.5    0.288    0.297   28.817   28.835
 integrate_v_rspace                  63 11.5    0.003    0.004   28.529   28.551
 force_field_control                  1  4.0    0.000    0.019   24.286   24.485
 mp_sum_dm3                          38  5.7   20.503   22.782   20.503   22.782
 pw_axpy                           1914  8.3   21.842   22.490   21.842   22.490
 -------------------------------------------------------------------------------

 The number of warnings for this run is : 0
 
 -------------------------------------------------------------------------------
  **** **** ******  **  PROGRAM ENDED AT                 2021-08-31 17:53:23.867
 ***** ** ***  *** **   PROGRAM RAN ON                                 nid001142
 **    ****   ******    PROGRAM RAN BY                                     hjbio
 ***** **    ** ** **   PROGRAM PROCESS ID                                 18190
  **** **  *******  **  PROGRAM STOPPED IN /lus/cls01095/work/d118/d118/hjbio/qm
                                           mm-benchmarking/archer2/CPU/cp2kMD/CB
                                           D_PHY-PBE0/6STEPS/1NODES/64CPN/1THREA
                                           DS
