 DBCSR| CPU Multiplication driver                                           BLAS
 DBCSR| Multrec recursion limit                                              512
 DBCSR| Multiplication stack size                                           1000
 DBCSR| Maximum elements for images                                    UNLIMITED
 DBCSR| Multiplicative factor virtual images                                   1
 DBCSR| Use multiplication densification                                       T
 DBCSR| Multiplication size stacks                                             3
 DBCSR| Use memory pool for CPU allocation                                     F
 DBCSR| Number of 3D layers                                               SINGLE
 DBCSR| Use MPI memory allocation                                              F
 DBCSR| Use RMA algorithm                                                      F
 DBCSR| Use Communication thread                                               T
 DBCSR| Communication thread load                                             83
 DBCSR| MPI: My node id                                                        0
 DBCSR| MPI: Number of nodes                                                  16
 DBCSR| OMP: Current number of threads                                         2
 DBCSR| OMP: Max number of threads                                             2
 DBCSR| Split modifier for TAS multiplication algorithm                  1.0E+00


  **** **** ******  **  PROGRAM STARTED AT               2021-09-01 14:56:10.579
 ***** ** ***  *** **   PROGRAM STARTED ON                             nid001023
 **    ****   ******    PROGRAM STARTED BY                                 hjbio
 ***** **    ** ** **   PROGRAM PROCESS ID                                203948
  **** **  *******  **  PROGRAM STARTED IN /lus/cls01095/work/d118/d118/hjbio/qm
                                           mm-benchmarking/archer2/CPU/cp2kMD/MQ
                                           AE/1STEPS/1NODES/32CPN/2THREADS

 CP2K| version string:                                          CP2K version 8.2
 CP2K| source code revision number:                                  git:310b7ab
 CP2K| cp2kflags: omp libint fftw3 libxc elpa parallel mpi3 scalapack plumed2   
 CP2K| is freely available from                            https://www.cp2k.org/
 CP2K| Program compiled at                          Thu 10 Jun 17:43:51 BST 2021
 CP2K| Program compiled on                                                 uan01
 CP2K| Program compiled for                                              ARCHER2
 CP2K| Data directory path              /work/d118/d118/hjbio/CP2K/cp2k-8.2/data
 CP2K| Input file name                                             mqae-cp2k.inp

 GLOBAL| Force Environment number                                              1
 GLOBAL| Basis set file name                                        BASIS_MOLOPT
 GLOBAL| Potential file name                                           POTENTIAL
 GLOBAL| MM Potential file name                                     MM_POTENTIAL
 GLOBAL| Coordinate file name                                           mqae.pdb
 GLOBAL| Method name                                                        CP2K
 GLOBAL| Project name                                                  MQAE-BLYP
 GLOBAL| Run type                                                             MD
 GLOBAL| FFT library                                                       FFTW3
 GLOBAL| Diagonalization library                                            ELPA
 GLOBAL| Minimum number of eigenvectors for ELPA usage                        16
 GLOBAL| Orthonormality check for eigenvectors                          DISABLED
 GLOBAL| Matrix multiplication library                                    SCALAP
 GLOBAL| All-to-all communication in single precision                          F
 GLOBAL| FFTs using library dependent lengths                                  F
 GLOBAL| Grid backend                                                       AUTO
 GLOBAL| Global print level                                                  LOW
 GLOBAL| MPI I/O enabled                                                       T
 GLOBAL| Total number of message passing processes                            16
 GLOBAL| Number of threads for this process                                    2
 GLOBAL| This output is from process                                           0
 GLOBAL| CPU model name                          AMD EPYC 7742 64-Core Processor
 GLOBAL| CPUID                                                              1002

 MEMORY| system memory details [Kb]
 MEMORY|                        rank 0           min           max       average
 MEMORY| MemTotal            263568576     263568576     263568576     263568576
 MEMORY| MemFree             246216040     246216040     246216040     246216040
 MEMORY| Buffers                120224        120224        120224        120224
 MEMORY| Cached                7487960       7487960       7487960       7487960
 MEMORY| Slab                  2321768       2321768       2321768       2321768
 MEMORY| SReclaimable           189620        189620        189620        189620
 MEMORY| MemLikelyFree       254013844     254013844     254013844     254013844



                      ************* ******** ***********   
                     ************* **********************  
                     ****     **** ****      ***********   
                     ******** ****  *******     ****       
                     *******  ****   *******   ****        
                     ****     ****       ****  ****        
                     ****     **** **********  ****        
                      ****     **** ********    ****       
                     FRONTIERS IN SIMULATION TECHNOLOGY    
                                                           
                        C.J. Mundy, S. Balasubramanian,    
                     Ken Bagchi, J. Hutter, Ari Seitsonen  
                      IFW Kuo, T. Laino, J. VandeVondele   
                                 Version 1.0               

                                                           


 EWALD| Summation is done by:                                               SPME
 EWALD| Alpha parameter [       ANGSTROM^-1]                              0.4000
 EWALD| Real Space Cutoff [          ANGSTROM]                            8.4348
 EWALD| G-space max. Miller index                         80        80        80
 EWALD| Spline interpolation order                                             6

 FORCEFIELD| WARNING: A non Critical ForceField parameter is missing! CP2K GOES!
 FORCEFIELD| Non critical parameters are:Urey-Bradley,Torsions,Impropers, Opbends and 1-4
 FORCEFIELD| All missing parameters will not contribute to the potential energy!
 FORCEFIELD| Activate the print key FF_INFO to have a list of missing parameters

 CHARGE_INFO| Total Charge of the Classical System:                     0.000000

 SPLINE_INFO| Generating 465 splines for NONBONDED14 interactions 
              Due to 30 different atomic kinds
  ...46  ...92  ...138  ...184  ...230  ...276  ...322  ...368  ...414  ...460
 SPLINE_INFO| Number of unique splines computed:            22
 SPLINE_INFO| Done

 SPLINE_INFO| Generating 465 splines for NONBONDED interactions 
              Due to 30 different atomic kinds
  ...46  ...92  ...138  ...184  ...230  ...276  ...322  ...368  ...414  ...460
 SPLINE_INFO| Number of unique splines computed:            22
 SPLINE_INFO| Done

 *******************************************************************************
 *******************************************************************************
 **                                                                           **
 **     #####                         ##              ##                      **
 **    ##   ##            ##          ##              ##                      **
 **   ##     ##                       ##            ######                    **
 **   ##     ##  ##   ##  ##   #####  ##  ##   ####   ##    #####    #####    **
 **   ##     ##  ##   ##  ##  ##      ## ##   ##      ##   ##   ##  ##   ##   **
 **   ##  ## ##  ##   ##  ##  ##      ####     ###    ##   ######   ######    **
 **    ##  ###   ##   ##  ##  ##      ## ##      ##   ##   ##       ##        **
 **     #######   #####   ##   #####  ##  ##  ####    ##    #####   ##        **
 **           ##                                                    ##        **
 **                                                                           **
 **                                                ... make the atoms dance   **
 **                                                                           **
 **            Copyright (C) by CP2K developers group (2000-2021)             **
 **                      J. Chem. Phys. 152, 194103 (2020)                    **
 **                                                                           **
 *******************************************************************************


 TOTAL NUMBERS AND MAXIMUM NUMBERS

  Total number of            - Atomic kinds:                                   4
                             - Atoms:                                         34
                             - Shell sets:                                    34
                             - Shells:                                       138
                             - Primitive Cartesian functions:                238
                             - Cartesian basis functions:                    332
                             - Spherical basis functions:                    314

  Maximum angular momentum of- Orbital basis functions:                        2
                             - Local part of the GTH pseudopotential:          2
                             - Non-local part of the GTH pseudopotential:      0


 SCF PARAMETERS         Density guess:                                   RESTART
                        --------------------------------------------------------
                        max_scf:                                             300
                        max_scf_history:                                       0
                        max_diis:                                              4
                        --------------------------------------------------------
                        eps_scf:                                        1.00E-06
                        eps_scf_history:                                0.00E+00
                        eps_diis:                                       1.00E-01
                        eps_eigval:                                     1.00E-05
                        --------------------------------------------------------
                        level_shift [a.u.]:                                 0.00
                        --------------------------------------------------------
                        No outer SCF

 *******************************************************************************
 *******************************************************************************
 **                                                                           **
 **             #######  ##     ## ##     ## ##     ##                        **
 **            ##     ## ###   ### ###   ### ###   ###                        **
 **            ##     ## #### #### #### #### #### ####                        **
 **            ##     ## ## ### ## ## ### ## ## ### ##                        **
 **            ##  ## ## ##     ## ##     ## ##     ##                        **
 **            ##    ##  ##     ## ##     ## ##     ##  T.Laino and F.Mohamed **
 **             ##### ## ##     ## ##     ## ##     ##  2005 - 2015           **
 **                                                                           **
 **                                                     Calculation Started.. **
 *******************************************************************************
 *******************************************************************************

 MD_PAR| Molecular dynamics protocol (MD input parameters)
 MD_PAR| Ensemble type                                                       NVE
 MD_PAR| Number of time steps                                                  1
 MD_PAR| Time step [fs]                                                 1.000000
 MD_PAR| Temperature [K]                                              300.000000
 MD_PAR| Temperature tolerance [K]                                      0.000000
 MD_PAR| Print MD information every                                    1 step(s)
 MD_PAR| File type   Print frequency [steps]                          File names
 MD_PAR| Coordinates          1                              MQAE-BLYP-pos-1.xyz
 MD_PAR| Velocities           1                              MQAE-BLYP-vel-1.xyz
 MD_PAR| Energies             1                                 MQAE-BLYP-1.ener
 MD_PAR| Dump                20                              MQAE-BLYP-1.restart

 ROT| Rotational analysis information
 ROT| Principal axes and moments of inertia [a.u.]
 ROT|                           1                   2                   3
 ROT| Eigenvalues      8.16955424013E+10   8.26770351780E+10   8.33145263212E+10
 ROT|      x              0.339476722416      0.927826629059     -0.154574581827
 ROT|      y              0.779693760491     -0.369496170761     -0.505519751982
 ROT|      z              0.526149403486     -0.051091351539      0.848855982490
 ROT| Number of rotovibrational vectors                                        6

 DOF| Calculation of degrees of freedom
 DOF| Number of atoms                                                       7186
 DOF| Number of intramolecular constraints                                     0
 DOF| Number of intermolecular constraints                                     0
 DOF| Invariants (translations + rotations)                                    3
 DOF| Degrees of freedom                                                   21555

 DOF| Restraints information
 DOF| Number of intramolecular restraints                                      0
 DOF| Number of intermolecular restraints                                      0

 MD_VEL| Velocities initialization
 MD_VEL| Initial temperature [K]                                      300.000000
 MD_VEL| COM velocity            -0.0000000000     0.0000000000    -0.0000000000

  Translating the system in order to center the QM fragment in the QM box.

 Number of electrons:                                                         94
 Number of occupied orbitals:                                                 47
 Number of molecular orbitals:                                                47

 Number of orbital functions:                                                314
 Number of independent orbital functions:                                    314

 Extrapolation method: initial_guess


 SCF WAVEFUNCTION OPTIMIZATION

  ----------------------------------- OT ---------------------------------------
  Minimizer      : DIIS                : direct inversion
                                         in the iterative subspace
                                         using   7 DIIS vectors
                                         safer DIIS on
  Preconditioner : FULL_ALL            : diagonalization, state selective
  Precond_solver : DEFAULT
  stepsize       :    0.15000000                  energy_gap     :    0.08000000
  eps_taylor     :   0.10000E-15                  max_taylor     :             4
  ----------------------------------- OT ---------------------------------------

  Step     Update method      Time    Convergence         Total energy    Change
  ------------------------------------------------------------------------------
  Decoupling Energy:                                               0.0725225470
  Recoupling Energy:                                              -0.0186086616
     1 OT DIIS     0.15E+00    0.6     0.00000556      -146.8268108731 -1.47E+02
  Decoupling Energy:                                               0.0725225167
  Recoupling Energy:                                              -0.0186086642
     2 OT DIIS     0.15E+00    0.8     0.00000254      -146.8268109193 -4.62E-08
  Decoupling Energy:                                               0.0725223233
  Recoupling Energy:                                              -0.0186086496
     3 OT DIIS     0.15E+00    0.7     0.00000280      -146.8268109254 -6.07E-09
  Decoupling Energy:                                               0.0725224230
  Recoupling Energy:                                              -0.0186086595
     4 OT DIIS     0.15E+00    0.8     0.00000038      -146.8268109292 -3.82E-09

  *** SCF run converged in     4 steps ***


  Electronic density on regular grids:        -93.9999999978        0.0000000022
  Core density on regular grids:               94.9999999999       -0.0000000001
  Total charge density on r-space grids:        1.0000000021
  Total charge density g-space grids:           1.0000000021

  Overlap energy of the core charge distribution:               0.00000599177744
  Self energy of the core charge distribution:               -359.57183942644110
  Core Hamiltonian energy:                                    109.64011022087520
  Hartree energy:                                             145.87568612604343
  Exchange-correlation energy:                                -42.44255599596191
  QM/MM Electrostatic energy:                                  -0.32821784546758

  Total energy:                                              -146.82681092917454
  Decoupling Energy:                                               0.0725224156
  Recoupling Energy:                                              -0.0186086578

 ENERGY| Total FORCE_EVAL ( QMMM ) energy [a.u.]:           -125.503710940003629

 MD_INI| MD initialization
 MD_INI| Potential energy [hartree]                          -0.125503710940E+03
 MD_INI| Total kinetic energy [hartree]                       0.102391057087E+02
 MD_INI| QM kinetic energy [hartree]                          0.538313910515E-01
 MD_INI| Total temperature [K]                                        300.000000
 MD_INI| QM temperature [K]                                           333.305658
 MD_INI| Cell volume [bohr^3]                                 4.911308927827E+05
 MD_INI| Cell volume [ang^3]                                  7.277808868775E+04
 MD_INI| Cell lengths [bohr]      7.88979558E+01  7.88979558E+01  7.88979558E+01
 MD_INI| Cell lengths [ang]       4.17510000E+01  4.17510000E+01  4.17510000E+01
 MD_INI| Cell angles [deg]        9.00000000E+01  9.00000000E+01  9.00000000E+01

  Translating the system in order to center the QM fragment in the QM box.

 Number of electrons:                                                         94
 Number of occupied orbitals:                                                 47
 Number of molecular orbitals:                                                47

 Number of orbital functions:                                                314
 Number of independent orbital functions:                                    314

 Extrapolation method: ASPC


 SCF WAVEFUNCTION OPTIMIZATION

  ----------------------------------- OT ---------------------------------------
  Minimizer      : DIIS                : direct inversion
                                         in the iterative subspace
                                         using   7 DIIS vectors
                                         safer DIIS on
  Preconditioner : FULL_ALL            : diagonalization, state selective
  Precond_solver : DEFAULT
  stepsize       :    0.15000000                  energy_gap     :    0.08000000
  eps_taylor     :   0.10000E-15                  max_taylor     :             4
  ----------------------------------- OT ---------------------------------------

  Step     Update method      Time    Convergence         Total energy    Change
  ------------------------------------------------------------------------------
  Decoupling Energy:                                               0.0725138029
  Recoupling Energy:                                              -0.0186075740
     1 OT DIIS     0.15E+00    0.6     0.00274277      -146.7109266889 -1.47E+02
  Decoupling Energy:                                               0.0723879408
  Recoupling Energy:                                              -0.0186017406
     2 OT DIIS     0.15E+00    0.8     0.00104140      -146.7208966760 -9.97E-03
  Decoupling Energy:                                               0.0724570966
  Recoupling Energy:                                              -0.0186050492
     3 OT DIIS     0.15E+00    0.8     0.00066070      -146.7221387200 -1.24E-03
  Decoupling Energy:                                               0.0723978978
  Recoupling Energy:                                              -0.0186016821
     4 OT DIIS     0.15E+00    0.8     0.00038715      -146.7224086889 -2.70E-04
  Decoupling Energy:                                               0.0724216591
  Recoupling Energy:                                              -0.0186034090
     5 OT DIIS     0.15E+00    0.8     0.00009431      -146.7224796281 -7.09E-05
  Decoupling Energy:                                               0.0724195069
  Recoupling Energy:                                              -0.0186030391
     6 OT DIIS     0.15E+00    0.8     0.00004935      -146.7224837980 -4.17E-06
  Decoupling Energy:                                               0.0724183951
  Recoupling Energy:                                              -0.0186031255
     7 OT DIIS     0.15E+00    0.8     0.00001392      -146.7224850395 -1.24E-06
  Decoupling Energy:                                               0.0724188352
  Recoupling Energy:                                              -0.0186031168
     8 OT DIIS     0.15E+00    0.8     0.00000613      -146.7224851410 -1.02E-07
  Decoupling Energy:                                               0.0724191548
  Recoupling Energy:                                              -0.0186031402
     9 OT DIIS     0.15E+00    0.8     0.00000189      -146.7224851680 -2.69E-08
  Decoupling Energy:                                               0.0724189012
  Recoupling Energy:                                              -0.0186031246
    10 OT DIIS     0.15E+00    0.8     0.00000116      -146.7224851699 -2.00E-09
  Decoupling Energy:                                               0.0724189779
  Recoupling Energy:                                              -0.0186031300
    11 OT DIIS     0.15E+00    0.7     0.00000032      -146.7224851710 -1.04E-09

  *** SCF run converged in    11 steps ***


  Electronic density on regular grids:        -94.0000000006       -0.0000000006
  Core density on regular grids:               94.9999999999       -0.0000000001
  Total charge density on r-space grids:        0.9999999993
  Total charge density g-space grids:           0.9999999993

  Overlap energy of the core charge distribution:               0.00003276526484
  Self energy of the core charge distribution:               -359.57183942644110
  Core Hamiltonian energy:                                    109.82313931882851
  Hartree energy:                                             145.78150468195031
  Exchange-correlation energy:                                -42.49961996739914
  QM/MM Electrostatic energy:                                  -0.25570254319096

  Total energy:                                              -146.72248517098757
  Decoupling Energy:                                               0.0724189898
  Recoupling Energy:                                              -0.0186031293

 ENERGY| Total FORCE_EVAL ( QMMM ) energy [a.u.]:           -154.940146524769716

 MD| ***************************************************************************
 MD| Step number                                                               1
 MD| Time [fs]                                                          1.000000
 MD| Conserved quantity [hartree]                            -0.123933892380E+03
 MD| ---------------------------------------------------------------------------
 MD|                                          Instantaneous             Averages
 MD| CPU time per MD step [s]                     22.903718            22.903718
 MD| Energy drift per atom [K]          -0.380954786663E+03   0.000000000000E+00
 MD| Potential energy [hartree]         -0.154940146525E+03  -0.154940146525E+03
 MD| Total kinetic energy [hartree]      0.310062541447E+02   0.310062541447E+02
 MD| QM kinetic energy [hartree]         0.224429229162E+00   0.224429229162E+00
 MD| Total temperature [K]                       908.465691           908.465691
 MD| QM temperature [K]                         1389.589428          1389.589428
 MD| ***************************************************************************

 -------------------------------------------------------------------------------
 -                                                                             -
 -                                DBCSR STATISTICS                             -
 -                                                                             -
 -------------------------------------------------------------------------------
 COUNTER                                    TOTAL       BLAS       SMM       ACC
 flops     5 x    15 x    15                72000     100.0%      0.0%      0.0%
 flops    13 x    15 x    15               210600     100.0%      0.0%      0.0%
 flops     5 x    32 x    32               327680     100.0%      0.0%      0.0%
 flops    15 x    15 x    15               756000     100.0%      0.0%      0.0%
 flops    26 x    15 x    15               877500     100.0%      0.0%      0.0%
 flops    13 x    32 x    32               958464     100.0%      0.0%      0.0%
 flops    31 x    15 x    15              1046250     100.0%      0.0%      0.0%
 flops    15 x    15 x    32              1612800     100.0%      0.0%      0.0%
 flops    15 x    32 x    15              1612800     100.0%      0.0%      0.0%
 flops    32 x    15 x    15              1612800     100.0%      0.0%      0.0%
 flops    49 x    15 x    15              1653750     100.0%      0.0%      0.0%
 flops    54 x    15 x    15              1822500     100.0%      0.0%      0.0%
 flops    26 x    15 x    32              1872000     100.0%      0.0%      0.0%
 flops    26 x    32 x    15              1872000     100.0%      0.0%      0.0%
 flops     5 x     5 x    15              1938000     100.0%      0.0%      0.0%
 flops    31 x    15 x    32              2232000     100.0%      0.0%      0.0%
 flops    31 x    32 x    15              2232000     100.0%      0.0%      0.0%
 flops    36 x    15 x    15              2430000     100.0%      0.0%      0.0%
 flops    41 x    15 x    15              2767500     100.0%      0.0%      0.0%
 flops    32 x    32 x    15              3440640     100.0%      0.0%      0.0%
 flops    15 x    32 x    32              3440640     100.0%      0.0%      0.0%
 flops    32 x    15 x    32              3440640     100.0%      0.0%      0.0%
 flops    49 x    15 x    32              3528000     100.0%      0.0%      0.0%
 flops    49 x    32 x    15              3528000     100.0%      0.0%      0.0%
 flops    54 x    15 x    32              3888000     100.0%      0.0%      0.0%
 flops    54 x    32 x    15              3888000     100.0%      0.0%      0.0%
 flops    26 x    32 x    32              3993600     100.0%      0.0%      0.0%
 flops    26 x    15 x    77              4084080     100.0%      0.0%      0.0%
 flops     5 x     5 x    32              4134400     100.0%      0.0%      0.0%
 flops    26 x    15 x    80              4243200     100.0%      0.0%      0.0%
 flops    15 x    15 x    77              4296600     100.0%      0.0%      0.0%
 flops    15 x    15 x    80              4464000     100.0%      0.0%      0.0%
 flops    31 x    32 x    32              4761600     100.0%      0.0%      0.0%
 flops    31 x    15 x    77              4869480     100.0%      0.0%      0.0%
 flops    31 x    15 x    80              5059200     100.0%      0.0%      0.0%
 flops    36 x    32 x    15              5184000     100.0%      0.0%      0.0%
 flops    36 x    15 x    32              5184000     100.0%      0.0%      0.0%
 flops    13 x     5 x    15              5335200     100.0%      0.0%      0.0%
 flops     5 x    13 x    15              5335200     100.0%      0.0%      0.0%
 flops    41 x    32 x    15              5904000     100.0%      0.0%      0.0%
 flops    41 x    15 x    32              5904000     100.0%      0.0%      0.0%
 flops    32 x    32 x    32              7340032     100.0%      0.0%      0.0%
 flops    49 x    32 x    32              7526400     100.0%      0.0%      0.0%
 flops    49 x    15 x    77              7696920     100.0%      0.0%      0.0%
 flops    49 x    15 x    80              7996800     100.0%      0.0%      0.0%
 flops    54 x    32 x    32              8294400     100.0%      0.0%      0.0%
 flops     5 x    15 x     5              8448000     100.0%      0.0%      0.0%
 flops    54 x    15 x    77              8482320     100.0%      0.0%      0.0%
 flops    26 x    32 x    77              8712704     100.0%      0.0%      0.0%
 flops    54 x    15 x    80              8812800     100.0%      0.0%      0.0%
 flops    26 x    32 x    80              9052160     100.0%      0.0%      0.0%
 flops    15 x    32 x    77              9166080     100.0%      0.0%      0.0%
 flops    32 x    15 x    77              9166080     100.0%      0.0%      0.0%
 flops    15 x    32 x    80              9523200     100.0%      0.0%      0.0%
 flops    32 x    15 x    80              9523200     100.0%      0.0%      0.0%
 flops    31 x    32 x    77             10388224     100.0%      0.0%      0.0%
 flops    31 x    32 x    80             10792960     100.0%      0.0%      0.0%
 flops    36 x    32 x    32             11059200     100.0%      0.0%      0.0%
 flops    36 x    15 x    77             11309760     100.0%      0.0%      0.0%
 flops    13 x     5 x    32             11381760     100.0%      0.0%      0.0%
 flops     5 x    13 x    32             11381760     100.0%      0.0%      0.0%
 flops    36 x    15 x    80             11750400     100.0%      0.0%      0.0%
 flops    41 x    32 x    32             12595200     100.0%      0.0%      0.0%
 flops    41 x    15 x    77             12880560     100.0%      0.0%      0.0%
 flops    41 x    15 x    80             13382400     100.0%      0.0%      0.0%
 flops    49 x    32 x    77             16420096     100.0%      0.0%      0.0%
 flops    13 x    13 x    15             16472430     100.0%      0.0%      0.0%
 flops    49 x    32 x    80             17059840     100.0%      0.0%      0.0%
 flops     5 x    32 x     5             18022400     100.0%      0.0%      0.0%
 flops    54 x    32 x    77             18095616     100.0%      0.0%      0.0%
 flops    54 x    32 x    80             18800640     100.0%      0.0%      0.0%
 flops    32 x    32 x    77             19554304     100.0%      0.0%      0.0%
 flops    32 x    32 x    80             20316160     100.0%      0.0%      0.0%
 flops    36 x    32 x    77             24127488     100.0%      0.0%      0.0%
 flops    13 x    15 x     5             24710400     100.0%      0.0%      0.0%
 flops     5 x    15 x    13             24710400     100.0%      0.0%      0.0%
 flops    36 x    32 x    80             25067520     100.0%      0.0%      0.0%
 flops    41 x    32 x    77             27478528     100.0%      0.0%      0.0%
 flops    41 x    32 x    80             28549120     100.0%      0.0%      0.0%
 flops    13 x    13 x    32             35141184     100.0%      0.0%      0.0%
 flops    13 x    32 x     5             52715520     100.0%      0.0%      0.0%
 flops     5 x    32 x    13             52715520     100.0%      0.0%      0.0%
 flops    13 x    15 x    13             72277920     100.0%      0.0%      0.0%
 flops    13 x    32 x    13            154192896     100.0%      0.0%      0.0%
 flops inhomo. stacks                           0       0.0%      0.0%      0.0%
 flops total                         1.028904E+09     100.0%      0.0%      0.0%
 flops max/rank                    195.044194E+06     100.0%      0.0%      0.0%
 matmuls inhomo. stacks                         0       0.0%      0.0%      0.0%
 matmuls total                             130938     100.0%      0.0%      0.0%
 number of processed stacks                 21644     100.0%      0.0%      0.0%
 average stack size                                     6.0       0.0       0.0
 marketing flops                     1.117856E+09
 -------------------------------------------------------------------------------
 # multiplications                            350
 max memory usage/rank             568.430592E+06
 # max total images/rank                        1
 # max 3D layers                                1
 # MPI messages exchanged                   33600
 MPI messages size (bytes):
  total size                       312.762304E+06
  min size                           0.000000E+00
  max size                          51.200000E+03
  average size                       9.308402E+03
 MPI breakdown and total messages size (bytes):
             size <=      128               18648                        0
       128 < size <=     8192                3600                 15911736
      8192 < size <=    32768                7608                112278864
     32768 < size <=   131072                3744                184571712
    131072 < size <=  4194304                   0                        0
   4194304 < size <= 16777216                   0                        0
  16777216 < size                               0                        0
 -------------------------------------------------------------------------------
 -                                                                             -
 -                      DBCSR MESSAGE PASSING PERFORMANCE                      -
 -                                                                             -
 -------------------------------------------------------------------------------
 ROUTINE             CALLS      AVE VOLUME [Bytes]
 MP_Bcast               85                     12.
 MP_Allreduce         2007                     10.
 MP_Alltoall          1407                   4184.
 MP_ISend             5592                   5613.
 MP_IRecv             5592                   4765.
 -------------------------------------------------------------------------------

 -------------------------------------------------------------------------------
 -                                                                             -
 -                                GRID STATISTICS                              -
 -                                                                             -
 -------------------------------------------------------------------------------
 LP    KERNEL             BACKEND                              COUNT     PERCENT
 3     collocate ortho    REF                                 479731      24.11%
 3     integrate ortho    REF                                 453190      22.77%
 4     integrate ortho    REF                                 285852      14.36%
 4     collocate ortho    REF                                 260008      13.07%
 2     collocate ortho    REF                                 254143      12.77%
 2     integrate ortho    REF                                 224250      11.27%
 5     integrate ortho    REF                                  30590       1.54%
 0     collocate general  REF                                   1088       0.05%
 1     integrate general  REF                                   1088       0.05%
 -------------------------------------------------------------------------------

 MEMORY| Estimated peak process memory [MiB]                                 543

 -------------------------------------------------------------------------------
 -                                                                             -
 -                         MESSAGE PASSING PERFORMANCE                         -
 -                                                                             -
 -------------------------------------------------------------------------------

 ROUTINE             CALLS      AVE VOLUME [Bytes]
 MP_Group                8
 MP_Bcast              476                6634205.
 MP_Allreduce          856                 246615.
 MP_Sync                19
 MP_Alltoall           361               13012995.
 MP_ISendRecv         1530                 142560.
 MP_Wait              2134
 MP_comm_split           6
 MP_ISend              466                1123750.
 MP_IRecv              464                1127521.
 MP_Recv                 6                  30144.
 -------------------------------------------------------------------------------


 -------------------------------------------------------------------------------
 -                                                                             -
 -                           R E F E R E N C E S                               -
 -                                                                             -
 -------------------------------------------------------------------------------
 
 CP2K version 8.2, the CP2K developers group (2021).
 CP2K is freely available from https://www.cp2k.org/ .

 Kuehne,Thomas D.; Iannuzzi,Marcella; Del Ben,Mauro;
 Rybkin,Vladimir V.; Seewald,Patrick; Stein,Frederick; Laino,Teodoro;
 Khaliullin,Rustam Z.; Schuett,Ole; Schiffmann,Florian; Golze,Dorothea;
 Wilhelm,Jan; Chulkov,Sergey; Bani-Hashemian,Mohammad Hossein;
 Weber,Valery; Borstnik,Urban; Taillefumier,Mathieu;
 Jakobovits,Alice Shoshana; Lazzaro,Alfio; Pabst,Hans; Mueller,Tiziano;
 Schade,Robert; Guidon,Manuel; Andermatt,Samuel; Holmberg,Nico;
 Schenter,Gregory K.; Hehn,Anna; Bussy,Augustin; Belleflamme,Fabian;
 Tabacchi,Gloria; Gloess,Andreas; Lass,Michael; Bethune,Iain;
 Mundy,Christopher J.; Plessl,Christian; Watkins,Matt;
 VandeVondele,Joost; Krack,Matthias; Hutter,Juerg. 
 The Journal of Chemical Physics, 152 (19), (2020). 
 CP2K: An electronic structure and molecular dynamics software package -
 Quickstep: Efficient and accurate electronic structure calculations.
 https://doi.org/10.1063/5.0007045

 Schuett, Ole; Messmer, Peter; Hutter, Juerg; VandeVondele, Joost. 
 Electronic Structure Calculations on Graphics Processing Units, John
 Wiley & Sons, Ltd, 173-190 (2016). 
 GPU-Accelerated Sparse Matrix-Matrix Multiplication for
 Linear Scaling Density Functional Theory.
 https://doi.org/10.1002/9781118670712.ch8

 Borstnik, U; VandeVondele, J; Weber, V; Hutter, J. 
 PARALLEL COMPUTING, 40 (5-6), 47-58 (2014). 
 Sparse matrix multiplication: The distributed block-compressed sparse
 row library.
 https://doi.org/10.1016/j.parco.2014.03.012

 Hutter, J; Iannuzzi, M; Schiffmann, F; VandeVondele, J. 
 WIREs Comput Mol Sci., 4 (1), 15-25 (2014). 
 CP2K: atomistic simulations of condensed matter systems.
 https://doi.org/10.1002/wcms.1159

 Marek, A; Blum, V; Johanni, R; Havu, V; Lang, B; Auckenthaler, T;
 Heinecke, A; Bungartz, H; Lederer, H. 
 Journal of Physics: Condensed Matter, 26 (21), (2014). 
 The ELPA library: scalable parallel eigenvalue solutions for
 electronic structure
 theory and computational science.
 https://doi.org/10.1088/0953-8984/26/21/213201

 VandeVondele, J; Hutter, J. 
 JOURNAL OF CHEMICAL PHYSICS, 127 (11), 114105 (2007). 
 Gaussian basis sets for accurate calculations on molecular systems in
 gas and condensed phases.
 https://doi.org/10.1063/1.2770708

 Kuhne, TD; Krack, M; Mohamed, FR; Parrinello, M. 
 PHYSICAL REVIEW LETTERS, 98 (6), 066401 (2007). 
 Efficient and accurate Car-Parrinello-like approach to
 Born-Oppenheimer molecular dynamics.
 https://doi.org/10.1103/PhysRevLett.98.066401

 Laino, T; Mohamed, F; Laio, A; Parrinello, M. 
 JOURNAL OF CHEMICAL THEORY AND COMPUTATION, 2 (5), 1370-1378 (2006). 
 An efficient linear-scaling electrostatic coupling for treating
 periodic boundary conditions in QM/MM simulations.
 https://doi.org/10.1021/ct6001169

 Laino, T; Mohamed, F; Laio, A; Parrinello, M. 
 JOURNAL OF CHEMICAL THEORY AND COMPUTATION, 1 (6), 1176-1184 (2005). 
 An efficient real space multigrid QM/MM electrostatic coupling.
 https://doi.org/10.1021/ct050123f

 Krack, M. 
 THEORETICAL CHEMISTRY ACCOUNTS, 114 (1-3), 145-152 (2005). 
 Pseudopotentials for H to Kr optimized for gradient-corrected
 exchange-correlation functionals.
 https://doi.org/10.1007/s00214-005-0655-y

 VandeVondele, J; Krack, M; Mohamed, F; Parrinello, M; Chassaing, T;
 Hutter, J. COMPUTER PHYSICS COMMUNICATIONS, 167 (2), 103-128 (2005). 
 QUICKSTEP: Fast and accurate density functional calculations using a
 mixed Gaussian and plane waves approach.
 https://doi.org/10.1016/j.cpc.2004.12.014

 Frigo, M; Johnson, SG. 
 PROCEEDINGS OF THE IEEE, 93 (2), 216-231 (2005). 
 The design and implementation of FFTW3.
 https://doi.org/10.1109/JPROC.2004.840301

 Kolafa, J. 
 JOURNAL OF COMPUTATIONAL CHEMISTRY, 25 (3), 335-342 (2004). 
 Time-reversible always stable predictor-corrector method for molecular dynamics of polarizable molecules.
 https://doi.org/10.1002/jcc.10385

 VandeVondele, J; Hutter, J. 
 JOURNAL OF CHEMICAL PHYSICS, 118 (10), 4365-4369 (2003). 
 An efficient orbital transformation method for electronic structure
 calculations.
 https://doi.org/10.1063/1.1543154

 Hartwigsen, C; Goedecker, S; Hutter, J. 
 PHYSICAL REVIEW B, 58 (7), 3641-3662 (1998). 
 Relativistic separable dual-space Gaussian pseudopotentials from H to Rn.
 https://doi.org/10.1103/PhysRevB.58.3641

 Lippert, G; Hutter, J; Parrinello, M. 
 MOLECULAR PHYSICS, 92 (3), 477-487 (1997). 
 A hybrid Gaussian and plane wave density functional scheme.
 https://doi.org/10.1080/002689797170220

 Goedecker, S; Teter, M; Hutter, J. 
 PHYSICAL REVIEW B, 54 (3), 1703-1710 (1996). 
 Separable dual-space Gaussian pseudopotentials.
 https://doi.org/10.1103/PhysRevB.54.1703

 ESSMANN, U; PERERA, L; BERKOWITZ, ML; DARDEN, T; LEE, H; PEDERSEN, LG. 
 JOURNAL OF CHEMICAL PHYSICS, 103 (19), 8577-8593 (1995). 
 A SMOOTH PARTICLE MESH EWALD METHOD.
 https://doi.org/10.1063/1.470117

 BLOCHL, PE. 
 JOURNAL OF CHEMICAL PHYSICS, 103 (17), 7422-7428 (1995). 
 ELECTROSTATIC DECOUPLING OF PERIODIC IMAGES OF PLANE-WAVE-EXPANDED
 DENSITIES AND DERIVED ATOMIC POINT CHARGES.
 https://doi.org/10.1063/1.470314

 BECKE, AD. PHYSICAL REVIEW A, 38 (6), 3098-3100 (1988). 
 DENSITY-FUNCTIONAL EXCHANGE-ENERGY APPROXIMATION WITH CORRECT
 ASYMPTOTIC-BEHAVIOR.
 https://doi.org/10.1103/PhysRevA.38.3098

 LEE, CT; YANG, WT; PARR, RG. 
 PHYSICAL REVIEW B, 37 (2), 785-789 (1988). 
 DEVELOPMENT OF THE COLLE-SALVETTI CORRELATION-ENERGY FORMULA INTO A
 FUNCTIONAL OF THE ELECTRON-DENSITY.
 https://doi.org/10.1103/PhysRevB.37.785


 -------------------------------------------------------------------------------
 -                                                                             -
 -                                T I M I N G                                  -
 -                                                                             -
 -------------------------------------------------------------------------------
 SUBROUTINE                       CALLS  ASD         SELF TIME        TOTAL TIME
                                MAXIMUM       AVERAGE  MAXIMUM  AVERAGE  MAXIMUM
 CP2K                                 1  1.0    0.007    0.010   24.175   24.175
 qs_mol_dyn_low                       1  2.0    0.003    0.003   22.946   23.018
 velocity_verlet                      1  3.0    0.000    0.000   13.924   13.926
 qs_forces                            2  3.5    0.000    0.000   13.905   13.905
 qs_energies                          2  4.5    0.000    0.000   12.544   12.544
 scf_env_do_scf                       2  5.5    0.000    0.000   11.809   11.809
 scf_env_do_scf_inner_loop           15  6.7    0.000    0.001   10.646   10.648
 rebuild_ks_matrix                   17  8.4    0.000    0.000    9.383    9.383
 qs_ks_build_kohn_sham_matrix        17  9.4    0.003    0.003    9.383    9.383
 qs_ks_update_qs_env                 17  7.7    0.000    0.000    8.165    8.166
 pw_transfer                        362 11.8    0.023    0.026    6.789    6.882
 fft_wrap_pw1pw2                    301 13.0    0.003    0.004    6.605    6.695
 fft_wrap_pw1pw2_200                191 14.2    0.855    0.885    6.500    6.546
 qs_vxc_create                       17 10.4    0.000    0.001    5.542    5.543
 xc_vxc_pw_create                    17 11.4    0.095    0.099    5.542    5.543
 fft3d_ps                           301 15.0    3.158    3.217    4.719    4.875
 qmmm_forces                          2  3.5    0.000    0.001    4.599    4.599
 qmmm_forces_with_gaussian            2  4.5    0.133    0.135    4.497    4.518
 qs_rho_update_rho                   17  7.8    0.000    0.000    3.893    3.893
 calculate_rho_elec                  17  8.8    0.023    0.023    3.893    3.893
 qmmm_el_coupling                     2  3.5    0.000    0.000    3.725    3.755
 qmmm_elec_with_gaussian              2  4.5    0.099    0.101    3.723    3.753
 density_rs2pw                       17  9.8    0.001    0.001    2.480    2.709
 xc_rho_set_and_dset_create          17 12.4    0.194    0.197    2.640    2.645
 sum_up_and_integrate                17 10.4    0.026    0.028    2.422    2.425
 qmmm_force_with_gaussian_low         2  5.5    0.000    0.000    2.416    2.423
 integrate_v_rspace                  17 11.4    0.001    0.001    2.396    2.400
 rs_pw_transfer                     148 11.6    0.002    0.002    2.007    2.241
 qmmm_elec_with_gaussian_low          2  5.5    0.000    0.000    1.981    2.029
 qmmm_forces_gaussian_low_G           2  6.5    2.005    2.012    2.005    2.012
 pw_integral_ab                     883  7.0    1.919    1.951    1.936    1.969
 pw_restrict_s3                       6  5.5    0.426    0.442    1.750    1.767
 qmmm_elec_gaussian_low_G             2  6.5    1.672    1.703    1.672    1.703
 grid_collocate_task_list            17  9.8    1.252    1.471    1.252    1.471
 qmmm_elec_with_gaussian:spline       2  5.5    0.000    0.000    1.370    1.392
 pw_prolongate_s3                     6  6.5    0.326    0.338    1.370    1.392
 potential_pw2rs                     17 12.4    0.001    0.001    1.389    1.392
 rs_pw_transfer_RS2PW_200            19 11.5    0.211    0.250    1.080    1.378
 mp_waitany                         464 11.6    1.041    1.361    1.041    1.361
 qs_ks_update_qs_env_forces           2  4.5    0.000    0.000    1.218    1.218
 init_scf_loop                        2  6.5    0.000    0.000    1.160    1.160
 qmmm_env_create                      1  2.0    0.025    0.025    1.143    1.144
 mp_alltoall_z22v                   301 17.0    0.842    1.019    0.842    1.019
 grid_integrate_task_list            17 12.4    0.968    1.005    0.968    1.005
 x_to_yz                            161 16.4    0.403    0.409    0.849    0.930
 mp_alltoall_d11v                   363 13.3    0.174    0.919    0.174    0.919
 rs_scatter_matrices                 19  9.7    0.000    0.001    0.135    0.885
 yz_to_x                            140 15.6    0.309    0.318    0.705    0.785
 qs_ks_ddapc                         17 10.4    0.000    0.000    0.738    0.742
 rs_pw_transfer_PW2RS_200            19 13.8    0.377    0.386    0.673    0.678
 pw_gather_p                        140 14.6    0.515    0.605    0.515    0.605
 fist_init                            1  3.0    0.000    0.000    0.572    0.572
 pw_derive                          108 12.5    0.549    0.568    0.549    0.568
 pw_axpy                            558  7.8    0.516    0.554    0.516    0.554
 pw_copy                            247 11.9    0.524    0.535    0.524    0.535
 init_cube_info                       8  5.5    0.521    0.530    0.521    0.530
 qs_ks_qmmm_create                    1  3.0    0.000    0.000    0.519    0.528
 mp_sum_dm3                          13  5.2    0.473    0.521    0.473    0.521
 pw_scatter_p                       161 15.4    0.497    0.505    0.497    0.505
 init_scf_run                         2  5.5    0.000    0.000    0.487    0.487
 scf_env_initial_rho_setup            2  6.5    0.000    0.000    0.487    0.487
 -------------------------------------------------------------------------------

 The number of warnings for this run is : 0
 
 -------------------------------------------------------------------------------
  **** **** ******  **  PROGRAM ENDED AT                 2021-09-01 14:56:35.109
 ***** ** ***  *** **   PROGRAM RAN ON                                 nid001023
 **    ****   ******    PROGRAM RAN BY                                     hjbio
 ***** **    ** ** **   PROGRAM PROCESS ID                                203948
  **** **  *******  **  PROGRAM STOPPED IN /lus/cls01095/work/d118/d118/hjbio/qm
                                           mm-benchmarking/archer2/CPU/cp2kMD/MQ
                                           AE/1STEPS/1NODES/32CPN/2THREADS
