 DBCSR| CPU Multiplication driver                                           BLAS
 DBCSR| Multrec recursion limit                                              512
 DBCSR| Multiplication stack size                                           1000
 DBCSR| Maximum elements for images                                    UNLIMITED
 DBCSR| Multiplicative factor virtual images                                   1
 DBCSR| Use multiplication densification                                       T
 DBCSR| Multiplication size stacks                                             3
 DBCSR| Use memory pool for CPU allocation                                     F
 DBCSR| Number of 3D layers                                               SINGLE
 DBCSR| Use MPI memory allocation                                              F
 DBCSR| Use RMA algorithm                                                      F
 DBCSR| Use Communication thread                                               T
 DBCSR| Communication thread load                                             60
 DBCSR| MPI: My node id                                                        0
 DBCSR| MPI: Number of nodes                                                   4
 DBCSR| OMP: Current number of threads                                         8
 DBCSR| OMP: Max number of threads                                             8
 DBCSR| Split modifier for TAS multiplication algorithm                  1.0E+00


  **** **** ******  **  PROGRAM STARTED AT               2021-09-06 14:50:30.485
 ***** ** ***  *** **   PROGRAM STARTED ON                             nid001430
 **    ****   ******    PROGRAM STARTED BY                                 hjbio
 ***** **    ** ** **   PROGRAM PROCESS ID                                123937
  **** **  *******  **  PROGRAM STARTED IN /lus/cls01095/work/d118/d118/hjbio/qm
                                           mm-benchmarking/archer2/CPU/cp2kMD/CB
                                           D_PHY-PBE0/6STEPS/1NODES/32CPN/8THREA
                                           DS

 CP2K| version string:                                          CP2K version 8.2
 CP2K| source code revision number:                                  git:310b7ab
 CP2K| cp2kflags: omp libint fftw3 libxc elpa parallel mpi3 scalapack plumed2   
 CP2K| is freely available from                            https://www.cp2k.org/
 CP2K| Program compiled at                          Thu 10 Jun 17:43:51 BST 2021
 CP2K| Program compiled on                                                 uan01
 CP2K| Program compiled for                                              ARCHER2
 CP2K| Data directory path              /work/d118/d118/hjbio/CP2K/cp2k-8.2/data
 CP2K| Input file name                                          CBD_PHY-cp2k.inp

 GLOBAL| Force Environment number                                              1
 GLOBAL| Basis set file name                                           HFX_BASIS
 GLOBAL| Potential file name                                           POTENTIAL
 GLOBAL| MM Potential file name                                     MM_POTENTIAL
 GLOBAL| Coordinate file name                                        CBD_PHY.pdb
 GLOBAL| Method name                                                        CP2K
 GLOBAL| Project name                                               CBD_PHY-PBE0
 GLOBAL| Run type                                                             MD
 GLOBAL| FFT library                                                       FFTW3
 GLOBAL| Diagonalization library                                            ELPA
 GLOBAL| Minimum number of eigenvectors for ELPA usage                        16
 GLOBAL| Orthonormality check for eigenvectors                          DISABLED
 GLOBAL| Matrix multiplication library                                    SCALAP
 GLOBAL| All-to-all communication in single precision                          F
 GLOBAL| FFTs using library dependent lengths                                  F
 GLOBAL| Grid backend                                                       AUTO
 GLOBAL| Global print level                                                  LOW
 GLOBAL| MPI I/O enabled                                                       T
 GLOBAL| Total number of message passing processes                             4
 GLOBAL| Number of threads for this process                                    8
 GLOBAL| This output is from process                                           0
 GLOBAL| CPU model name                          AMD EPYC 7742 64-Core Processor
 GLOBAL| CPUID                                                              1002

 MEMORY| system memory details [Kb]
 MEMORY|                        rank 0           min           max       average
 MEMORY| MemTotal            263568576     263568576     263568576     263568576
 MEMORY| MemFree             251893536     251893536     251893536     251893536
 MEMORY| Buffers                357608        357608        357608        357608
 MEMORY| Cached                2494124       2494124       2494124       2494124
 MEMORY| Slab                  1743436       1743436       1743436       1743436
 MEMORY| SReclaimable           200828        200828        200828        200828
 MEMORY| MemLikelyFree       254946096     254946096     254946096     254946096



                      ************* ******** ***********   
                     ************* **********************  
                     ****     **** ****      ***********   
                     ******** ****  *******     ****       
                     *******  ****   *******   ****        
                     ****     ****       ****  ****        
                     ****     **** **********  ****        
                      ****     **** ********    ****       
                     FRONTIERS IN SIMULATION TECHNOLOGY    
                                                           
                        C.J. Mundy, S. Balasubramanian,    
                     Ken Bagchi, J. Hutter, Ari Seitsonen  
                      IFW Kuo, T. Laino, J. VandeVondele   
                                 Version 1.0               

                                                           


 EWALD| Summation is done by:                                               SPME
 EWALD| Alpha parameter [       ANGSTROM^-1]                              0.4000
 EWALD| Real Space Cutoff [          ANGSTROM]                            8.4348
 EWALD| G-space max. Miller index                         80        80        80
 EWALD| Spline interpolation order                                             6

 FORCEFIELD| WARNING: A non Critical ForceField parameter is missing! CP2K GOES!
 FORCEFIELD| Non critical parameters are:Urey-Bradley,Torsions,Impropers, Opbends and 1-4
 FORCEFIELD| All missing parameters will not contribute to the potential energy!
 FORCEFIELD| Activate the print key FF_INFO to have a list of missing parameters

 CHARGE_INFO| Total Charge of the Classical System:                    -0.825808

 SPLINE_INFO| Generating 101926 splines for NONBONDED14 interactions 
              Due to 451 different atomic kinds
  ...10192  ...20384  ...30576  ...40768  ...50960  ...61152  ...71344  ...81536  ...91728  ...101920
 SPLINE_INFO| Number of unique splines computed:            301
 SPLINE_INFO| Done

 SPLINE_INFO| Generating 101926 splines for NONBONDED interactions 
              Due to 451 different atomic kinds
  ...10192  ...20384  ...30576  ...40768  ...50960  ...61152  ...71344  ...81536  ...91728  ...101920
 SPLINE_INFO| Number of unique splines computed:            301
 SPLINE_INFO| Done

 *******************************************************************************
 *******************************************************************************
 **                                                                           **
 **     #####                         ##              ##                      **
 **    ##   ##            ##          ##              ##                      **
 **   ##     ##                       ##            ######                    **
 **   ##     ##  ##   ##  ##   #####  ##  ##   ####   ##    #####    #####    **
 **   ##     ##  ##   ##  ##  ##      ## ##   ##      ##   ##   ##  ##   ##   **
 **   ##  ## ##  ##   ##  ##  ##      ####     ###    ##   ######   ######    **
 **    ##  ###   ##   ##  ##  ##      ## ##      ##   ##   ##       ##        **
 **     #######   #####   ##   #####  ##  ##  ####    ##    #####   ##        **
 **           ##                                                    ##        **
 **                                                                           **
 **                                                ... make the atoms dance   **
 **                                                                           **
 **            Copyright (C) by CP2K developers group (2000-2021)             **
 **                      J. Chem. Phys. 152, 194103 (2020)                    **
 **                                                                           **
 *******************************************************************************


 TOTAL NUMBERS AND MAXIMUM NUMBERS

  Total number of            - Atomic kinds:                                   5
                             - Atoms:                                         68
                             - Shell sets:                                   340
                             - Shells:                                       445
                             - Primitive Cartesian functions:                476
                             - Cartesian basis functions:                   1137
                             - Spherical basis functions:                   1067

  Maximum angular momentum of- Orbital basis functions:                        2
                             - Local part of the GTH pseudopotential:          2
                             - Non-local part of the GTH pseudopotential:      0


 SCF PARAMETERS         Density guess:                                   RESTART
                        --------------------------------------------------------
                        max_scf:                                              30
                        max_scf_history:                                       0
                        max_diis:                                              4
                        --------------------------------------------------------
                        eps_scf:                                        1.00E-06
                        eps_scf_history:                                0.00E+00
                        eps_diis:                                       1.00E-01
                        eps_eigval:                                     1.00E-05
                        --------------------------------------------------------
                        level_shift [a.u.]:                                 0.00
                        --------------------------------------------------------
                        Outer loop SCF in use 
                        No variables optimised in outer loop
                        eps_scf                                         1.00E-06
                        max_scf                                               20
                        No outer loop optimization
                        step_size                                       5.00E-01

 *******************************************************************************
 *******************************************************************************
 **                                                                           **
 **             #######  ##     ## ##     ## ##     ##                        **
 **            ##     ## ###   ### ###   ### ###   ###                        **
 **            ##     ## #### #### #### #### #### ####                        **
 **            ##     ## ## ### ## ## ### ## ## ### ##                        **
 **            ##  ## ## ##     ## ##     ## ##     ##                        **
 **            ##    ##  ##     ## ##     ## ##     ##  T.Laino and F.Mohamed **
 **             ##### ## ##     ## ##     ## ##     ##  2005 - 2015           **
 **                                                                           **
 **                                                     Calculation Started.. **
 *******************************************************************************
 *******************************************************************************

 MD_PAR| Molecular dynamics protocol (MD input parameters)
 MD_PAR| Ensemble type                                                       NVE
 MD_PAR| Number of time steps                                                  6
 MD_PAR| Time step [fs]                                                 1.000000
 MD_PAR| Temperature [K]                                              300.000000
 MD_PAR| Temperature tolerance [K]                                      0.000000
 MD_PAR| Print MD information every                                    1 step(s)
 MD_PAR| File type   Print frequency [steps]                          File names
 MD_PAR| Coordinates          1                           CBD_PHY-PBE0-pos-1.xyz
 MD_PAR| Velocities           1                           CBD_PHY-PBE0-vel-1.xyz
 MD_PAR| Energies             1                              CBD_PHY-PBE0-1.ener
 MD_PAR| Dump                20                           CBD_PHY-PBE0-1.restart

 ROT| Rotational analysis information
 ROT| Principal axes and moments of inertia [a.u.]
 ROT|                           1                   2                   3
 ROT| Eigenvalues      1.56283164001E+13   1.56407408488E+13   1.56663418804E+13
 ROT|      x              0.901637047331     -0.018153263569      0.432112362589
 ROT|      y              0.323714777231      0.690893927917     -0.646431994388
 ROT|      z             -0.286808957117      0.722728191915      0.628812040859
 ROT| Number of rotovibrational vectors                                        6

 DOF| Calculation of degrees of freedom
 DOF| Number of atoms                                                     167923
 DOF| Number of intramolecular constraints                                     0
 DOF| Number of intermolecular constraints                                     0
 DOF| Invariants (translations + rotations)                                    3
 DOF| Degrees of freedom                                                  503766

 DOF| Restraints information
 DOF| Number of intramolecular restraints                                      0
 DOF| Number of intermolecular restraints                                      0

 MD_VEL| Velocities initialization
 MD_VEL| Initial temperature [K]                                      300.000000
 MD_VEL| COM velocity            -0.0000000000     0.0000000000     0.0000000000

  Translating the system in order to center the QM fragment in the QM box.

 Number of electrons:                                                        180
 Number of occupied orbitals:                                                 90
 Number of molecular orbitals:                                                90

 Number of orbital functions:                                               1067
 Number of independent orbital functions:                                   1067

 Extrapolation method: initial_guess


 SCF WAVEFUNCTION OPTIMIZATION

  ----------------------------------- OT ---------------------------------------
  Minimizer      : DIIS                : direct inversion
                                         in the iterative subspace
                                         using   7 DIIS vectors
                                         safer DIIS on
  Preconditioner : FULL_ALL            : diagonalization, state selective
  Precond_solver : DEFAULT
  stepsize       :    0.15000000                  energy_gap     :    0.08000000
  eps_taylor     :   0.10000E-15                  max_taylor     :             4
  ----------------------------------- OT ---------------------------------------

  Step     Update method      Time    Convergence         Total energy    Change
  ------------------------------------------------------------------------------
  Decoupling Energy:                                               0.0370647021
  Recoupling Energy:                                              -0.0063741479
     1 OT DIIS     0.15E+00   31.4     0.00129057      -255.9257316521 -2.56E+02
  Decoupling Energy:                                               0.0370576004
  Recoupling Energy:                                              -0.0063740314
     2 OT DIIS     0.15E+00   21.1     0.00057761      -255.9419521977 -1.62E-02
  Decoupling Energy:                                               0.0369596417
  Recoupling Energy:                                              -0.0063730135
     3 OT DIIS     0.15E+00   21.1     0.00038348      -255.9451217318 -3.17E-03
  Decoupling Energy:                                               0.0369795470
  Recoupling Energy:                                              -0.0063732416
     4 OT DIIS     0.15E+00   21.2     0.00009866      -255.9458275768 -7.06E-04
  Decoupling Energy:                                               0.0369716948
  Recoupling Energy:                                              -0.0063731487
     5 OT DIIS     0.15E+00   21.1     0.00003992      -255.9458779686 -5.04E-05
  Decoupling Energy:                                               0.0369737640
  Recoupling Energy:                                              -0.0063731649
     6 OT DIIS     0.15E+00   21.1     0.00001793      -255.9458894170 -1.14E-05
  Decoupling Energy:                                               0.0369741808
  Recoupling Energy:                                              -0.0063731680
     7 OT DIIS     0.15E+00   21.2     0.00000621      -255.9458922938 -2.88E-06
  Decoupling Energy:                                               0.0369727127
  Recoupling Energy:                                              -0.0063731518
     8 OT DIIS     0.15E+00   21.1     0.00000242      -255.9458926328 -3.39E-07
  Decoupling Energy:                                               0.0369731061
  Recoupling Energy:                                              -0.0063731556
     9 OT DIIS     0.15E+00   21.1     0.00000111      -255.9458926822 -4.94E-08
  Decoupling Energy:                                               0.0369728228
  Recoupling Energy:                                              -0.0063731526
    10 OT DIIS     0.15E+00   21.2     0.00000048      -255.9458926924 -1.02E-08

  *** SCF run converged in    10 steps ***


  Electronic density on regular grids:       -179.9999999999        0.0000000001
  Core density on regular grids:              180.9999999999       -0.0000000001
  Total charge density on r-space grids:        1.0000000000
  Total charge density g-space grids:           1.0000000000

  Overlap energy of the core charge distribution:               0.00001951532734
  Self energy of the core charge distribution:               -615.71576003586028
  Core Hamiltonian energy:                                    191.01363220817916
  Hartree energy:                                             248.20663869015803
  Exchange-correlation energy:                                -61.38430761263392
  Hartree-Fock Exchange energy:                               -18.10821018492854
  QM/MM Electrostatic energy:                                   0.04209472735631

  Total energy:                                              -255.94589269240188

  outer SCF iter =    1 RMS gradient =   0.48E-06 energy =       -255.9458926924
  outer SCF loop converged in   1 iterations or   10 steps

  Decoupling Energy:                                               0.0369728028
  Recoupling Energy:                                              -0.0063731523

 ENERGY| Total FORCE_EVAL ( QMMM ) energy [a.u.]:          -1088.110859627470063

 MD_INI| MD initialization
 MD_INI| Potential energy [hartree]                          -0.108811085963E+04
 MD_INI| Total kinetic energy [hartree]                       0.239300084734E+03
 MD_INI| QM kinetic energy [hartree]                          0.106639360339E+00
 MD_INI| Total temperature [K]                                        300.000000
 MD_INI| QM temperature [K]                                           330.137318
 MD_INI| Cell volume [bohr^3]                                 1.137316355424E+07
 MD_INI| Cell volume [ang^3]                                  1.685328937712E+06
 MD_INI| Cell lengths [bohr]      2.24884969E+02  2.24884969E+02  2.24884969E+02
 MD_INI| Cell lengths [ang]       1.19004000E+02  1.19004000E+02  1.19004000E+02
 MD_INI| Cell angles [deg]        9.00000000E+01  9.00000000E+01  9.00000000E+01

  Translating the system in order to center the QM fragment in the QM box.

 Number of electrons:                                                        180
 Number of occupied orbitals:                                                 90
 Number of molecular orbitals:                                                90

 Number of orbital functions:                                               1067
 Number of independent orbital functions:                                   1067

 Extrapolation method: ASPC


 SCF WAVEFUNCTION OPTIMIZATION

  ----------------------------------- OT ---------------------------------------
  Minimizer      : DIIS                : direct inversion
                                         in the iterative subspace
                                         using   7 DIIS vectors
                                         safer DIIS on
  Preconditioner : FULL_ALL            : diagonalization, state selective
  Precond_solver : DEFAULT
  stepsize       :    0.15000000                  energy_gap     :    0.08000000
  eps_taylor     :   0.10000E-15                  max_taylor     :             4
  ----------------------------------- OT ---------------------------------------

  Step     Update method      Time    Convergence         Total energy    Change
  ------------------------------------------------------------------------------
  Decoupling Energy:                                               0.0370014667
  Recoupling Energy:                                              -0.0063734172
     1 OT DIIS     0.15E+00   27.6     0.00075899      -255.7182133703 -2.56E+02
  Decoupling Energy:                                               0.0370082386
  Recoupling Energy:                                              -0.0063735355
     2 OT DIIS     0.15E+00   21.9     0.00032685      -255.7237312494 -5.52E-03
  Decoupling Energy:                                               0.0370087412
  Recoupling Energy:                                              -0.0063735590
     3 OT DIIS     0.15E+00   21.9     0.00019068      -255.7247685802 -1.04E-03
  Decoupling Energy:                                               0.0370199883
  Recoupling Energy:                                              -0.0063736817
     4 OT DIIS     0.15E+00   21.9     0.00006054      -255.7249610173 -1.92E-04
  Decoupling Energy:                                               0.0370216763
  Recoupling Energy:                                              -0.0063737045
     5 OT DIIS     0.15E+00   21.9     0.00001954      -255.7249775821 -1.66E-05
  Decoupling Energy:                                               0.0370210006
  Recoupling Energy:                                              -0.0063736984
     6 OT DIIS     0.15E+00   21.9     0.00000817      -255.7249798404 -2.26E-06
  Decoupling Energy:                                               0.0370221930
  Recoupling Energy:                                              -0.0063737124
     7 OT DIIS     0.15E+00   21.9     0.00000308      -255.7249803025 -4.62E-07
  Decoupling Energy:                                               0.0370222383
  Recoupling Energy:                                              -0.0063737132
     8 OT DIIS     0.15E+00   22.0     0.00000136      -255.7249803797 -7.72E-08
  Decoupling Energy:                                               0.0370224659
  Recoupling Energy:                                              -0.0063737159
     9 OT DIIS     0.15E+00   22.0     0.00000058      -255.7249803954 -1.57E-08

  *** SCF run converged in     9 steps ***


  Electronic density on regular grids:       -180.0000000000        0.0000000000
  Core density on regular grids:              180.9999999999       -0.0000000001
  Total charge density on r-space grids:        0.9999999999
  Total charge density g-space grids:           0.9999999999

  Overlap energy of the core charge distribution:               0.00002422739645
  Self energy of the core charge distribution:               -615.71576003586028
  Core Hamiltonian energy:                                    191.21095000956169
  Hartree energy:                                             248.07774805681564
  Exchange-correlation energy:                                -61.42683491627645
  Hartree-Fock Exchange energy:                               -18.12283147465848
  QM/MM Electrostatic energy:                                   0.25172373758281

  Total energy:                                              -255.72498039543865

  outer SCF iter =    1 RMS gradient =   0.58E-06 energy =       -255.7249803954
  outer SCF loop converged in   1 iterations or    9 steps

  Decoupling Energy:                                               0.0370224945
  Recoupling Energy:                                              -0.0063737164

 ENERGY| Total FORCE_EVAL ( QMMM ) energy [a.u.]:          -1059.962356567739107

 MD| ***************************************************************************
 MD| Step number                                                               1
 MD| Time [fs]                                                          1.000000
 MD| Conserved quantity [hartree]                            -0.841461427172E+03
 MD| ---------------------------------------------------------------------------
 MD|                                          Instantaneous             Averages
 MD| CPU time per MD step [s]                    765.114889           765.114889
 MD| Energy drift per atom [K]           0.138202490959E+02   0.000000000000E+00
 MD| Potential energy [hartree]         -0.105996235657E+04  -0.105996235657E+04
 MD| Total kinetic energy [hartree]      0.218500929395E+03   0.218500929395E+03
 MD| QM kinetic energy [hartree]         0.121347270356E+00   0.121347270356E+00
 MD| Total temperature [K]                       273.925013           273.925013
 MD| QM temperature [K]                          375.670506           375.670506
 MD| ***************************************************************************

  Translating the system in order to center the QM fragment in the QM box.

 Number of electrons:                                                        180
 Number of occupied orbitals:                                                 90
 Number of molecular orbitals:                                                90

 Number of orbital functions:                                               1067
 Number of independent orbital functions:                                   1067

 Extrapolation method: ASPC


 SCF WAVEFUNCTION OPTIMIZATION

  ----------------------------------- OT ---------------------------------------
  Minimizer      : DIIS                : direct inversion
                                         in the iterative subspace
                                         using   7 DIIS vectors
                                         safer DIIS on
  Preconditioner : FULL_ALL            : diagonalization, state selective
  Precond_solver : DEFAULT
  stepsize       :    0.15000000                  energy_gap     :    0.08000000
  eps_taylor     :   0.10000E-15                  max_taylor     :             4
  ----------------------------------- OT ---------------------------------------

  Step     Update method      Time    Convergence         Total energy    Change
  ------------------------------------------------------------------------------
  Decoupling Energy:                                               0.0370781912
  Recoupling Energy:                                              -0.0063743357
     1 OT DIIS     0.15E+00   27.8     0.00029256      -255.3622521793 -2.55E+02
  Decoupling Energy:                                               0.0370714480
  Recoupling Energy:                                              -0.0063742686
     2 OT DIIS     0.15E+00   21.9     0.00012380      -255.3630879781 -8.36E-04
  Decoupling Energy:                                               0.0370747218
  Recoupling Energy:                                              -0.0063743003
     3 OT DIIS     0.15E+00   21.9     0.00005679      -255.3632553049 -1.67E-04
  Decoupling Energy:                                               0.0370720783
  Recoupling Energy:                                              -0.0063742776
     4 OT DIIS     0.15E+00   21.9     0.00001756      -255.3632740975 -1.88E-05
  Decoupling Energy:                                               0.0370725495
  Recoupling Energy:                                              -0.0063742816
     5 OT DIIS     0.15E+00   21.9     0.00000682      -255.3632756243 -1.53E-06
  Decoupling Energy:                                               0.0370729664
  Recoupling Energy:                                              -0.0063742867
     6 OT DIIS     0.15E+00   21.9     0.00000313      -255.3632758820 -2.58E-07
  Decoupling Energy:                                               0.0370729512
  Recoupling Energy:                                              -0.0063742866
     7 OT DIIS     0.15E+00   21.9     0.00000105      -255.3632759430 -6.10E-08
  Decoupling Energy:                                               0.0370730091
  Recoupling Energy:                                              -0.0063742873
     8 OT DIIS     0.15E+00   21.9     0.00000048      -255.3632759531 -1.02E-08

  *** SCF run converged in     8 steps ***


  Electronic density on regular grids:       -180.0000000000       -0.0000000000
  Core density on regular grids:              180.9999999999       -0.0000000001
  Total charge density on r-space grids:        0.9999999998
  Total charge density g-space grids:           0.9999999998

  Overlap energy of the core charge distribution:               0.00005088934186
  Self energy of the core charge distribution:               -615.71576003586028
  Core Hamiltonian energy:                                    191.44418541098199
  Hartree energy:                                             247.94136765999701
  Exchange-correlation energy:                                -61.47332457163463
  Hartree-Fock Exchange energy:                               -18.13880648311248
  QM/MM Electrostatic energy:                                   0.57901117717356

  Total energy:                                              -255.36327595311300

  outer SCF iter =    1 RMS gradient =   0.48E-06 energy =       -255.3632759531
  outer SCF loop converged in   1 iterations or    8 steps

  Decoupling Energy:                                               0.0370730258
  Recoupling Energy:                                              -0.0063742875

 ENERGY| Total FORCE_EVAL ( QMMM ) energy [a.u.]:          -1061.235329330829018

 MD| ***************************************************************************
 MD| Step number                                                               2
 MD| Time [fs]                                                          2.000000
 MD| Conserved quantity [hartree]                            -0.842817774650E+03
 MD| ---------------------------------------------------------------------------
 MD|                                          Instantaneous             Averages
 MD| CPU time per MD step [s]                    348.223926           556.669408
 MD| Energy drift per atom [K]           0.112696744448E+02   0.563483722241E+01
 MD| Potential energy [hartree]         -0.106123532933E+04  -0.106059884295E+04
 MD| Total kinetic energy [hartree]      0.218417554681E+03   0.218459242038E+03
 MD| QM kinetic energy [hartree]         0.111578156205E+00   0.116462713280E+00
 MD| Total temperature [K]                       273.820490           273.872751
 MD| QM temperature [K]                          345.426990           360.548748
 MD| ***************************************************************************

  Translating the system in order to center the QM fragment in the QM box.

 Number of electrons:                                                        180
 Number of occupied orbitals:                                                 90
 Number of molecular orbitals:                                                90

 Number of orbital functions:                                               1067
 Number of independent orbital functions:                                   1067

 Extrapolation method: ASPC


 SCF WAVEFUNCTION OPTIMIZATION

  ----------------------------------- OT ---------------------------------------
  Minimizer      : DIIS                : direct inversion
                                         in the iterative subspace
                                         using   7 DIIS vectors
                                         safer DIIS on
  Preconditioner : FULL_ALL            : diagonalization, state selective
  Precond_solver : DEFAULT
  stepsize       :    0.15000000                  energy_gap     :    0.08000000
  eps_taylor     :   0.10000E-15                  max_taylor     :             4
  ----------------------------------- OT ---------------------------------------

  Step     Update method      Time    Convergence         Total energy    Change
  ------------------------------------------------------------------------------
  Decoupling Energy:                                               0.0371231286
  Recoupling Energy:                                              -0.0063748338
     1 OT DIIS     0.15E+00   27.6     0.00057316      -254.8840255620 -2.55E+02
  Decoupling Energy:                                               0.0371264154
  Recoupling Energy:                                              -0.0063748791
     2 OT DIIS     0.15E+00   21.5     0.00022569      -254.8871518280 -3.13E-03
  Decoupling Energy:                                               0.0371270703
  Recoupling Energy:                                              -0.0063748844
     3 OT DIIS     0.15E+00   21.5     0.00008232      -254.8877072615 -5.55E-04
  Decoupling Energy:                                               0.0371223387
  Recoupling Energy:                                              -0.0063748374
     4 OT DIIS     0.15E+00   21.5     0.00002749      -254.8877575313 -5.03E-05
  Decoupling Energy:                                               0.0371233224
  Recoupling Energy:                                              -0.0063748479
     5 OT DIIS     0.15E+00   21.5     0.00001034      -254.8877613322 -3.80E-06
  Decoupling Energy:                                               0.0371231621
  Recoupling Energy:                                              -0.0063748451
     6 OT DIIS     0.15E+00   21.5     0.00000438      -254.8877619161 -5.84E-07
  Decoupling Energy:                                               0.0371230858
  Recoupling Energy:                                              -0.0063748447
     7 OT DIIS     0.15E+00   21.5     0.00000136      -254.8877620059 -8.98E-08
  Decoupling Energy:                                               0.0371230878
  Recoupling Energy:                                              -0.0063748447
     8 OT DIIS     0.15E+00   21.5     0.00000059      -254.8877620167 -1.08E-08

  *** SCF run converged in     8 steps ***


  Electronic density on regular grids:       -180.0000000003       -0.0000000003
  Core density on regular grids:              180.9999999999       -0.0000000001
  Total charge density on r-space grids:        0.9999999996
  Total charge density g-space grids:           0.9999999996

  Overlap energy of the core charge distribution:               0.00005124502905
  Self energy of the core charge distribution:               -615.71576003586028
  Core Hamiltonian energy:                                    191.49125437810204
  Hartree energy:                                             247.90728336143306
  Exchange-correlation energy:                                -61.48094545846821
  Hartree-Fock Exchange energy:                               -18.14140147463105
  QM/MM Electrostatic energy:                                   1.05175596767286

  Total energy:                                              -254.88776201672258

  outer SCF iter =    1 RMS gradient =   0.59E-06 energy =       -254.8877620167
  outer SCF loop converged in   1 iterations or    8 steps

  Decoupling Energy:                                               0.0371230875
  Recoupling Energy:                                              -0.0063748447

 ENERGY| Total FORCE_EVAL ( QMMM ) energy [a.u.]:          -1082.045340393678543

 MD| ***************************************************************************
 MD| Step number                                                               3
 MD| Time [fs]                                                          3.000000
 MD| Conserved quantity [hartree]                            -0.846392349896E+03
 MD| ---------------------------------------------------------------------------
 MD|                                          Instantaneous             Averages
 MD| CPU time per MD step [s]                    349.755371           487.698062
 MD| Energy drift per atom [K]           0.454778262720E+01   0.527248569067E+01
 MD| Potential energy [hartree]         -0.108204534039E+04  -0.106774767543E+04
 MD| Total kinetic energy [hartree]      0.235652990498E+03   0.224190491525E+03
 MD| QM kinetic energy [hartree]         0.117356292401E+00   0.116760572987E+00
 MD| Total temperature [K]                       295.427798           281.057767
 MD| QM temperature [K]                          363.315117           361.470871
 MD| ***************************************************************************

  Translating the system in order to center the QM fragment in the QM box.

 Number of electrons:                                                        180
 Number of occupied orbitals:                                                 90
 Number of molecular orbitals:                                                90

 Number of orbital functions:                                               1067
 Number of independent orbital functions:                                   1067

 Extrapolation method: ASPC


 SCF WAVEFUNCTION OPTIMIZATION

  ----------------------------------- OT ---------------------------------------
  Minimizer      : DIIS                : direct inversion
                                         in the iterative subspace
                                         using   7 DIIS vectors
                                         safer DIIS on
  Preconditioner : FULL_ALL            : diagonalization, state selective
  Precond_solver : DEFAULT
  stepsize       :    0.15000000                  energy_gap     :    0.08000000
  eps_taylor     :   0.10000E-15                  max_taylor     :             4
  ----------------------------------- OT ---------------------------------------

  Step     Update method      Time    Convergence         Total energy    Change
  ------------------------------------------------------------------------------
  Decoupling Energy:                                               0.0371655167
  Recoupling Energy:                                              -0.0063753288
     1 OT DIIS     0.15E+00   27.8     0.00026663      -254.3373013127 -2.54E+02
  Decoupling Energy:                                               0.0371741801
  Recoupling Energy:                                              -0.0063754091
     2 OT DIIS     0.15E+00   21.8     0.00010693      -254.3379920583 -6.91E-04
  Decoupling Energy:                                               0.0371691765
  Recoupling Energy:                                              -0.0063753576
     3 OT DIIS     0.15E+00   21.8     0.00004005      -254.3381202807 -1.28E-04
  Decoupling Energy:                                               0.0371714556
  Recoupling Energy:                                              -0.0063753810
     4 OT DIIS     0.15E+00   21.8     0.00001284      -254.3381301389 -9.86E-06
  Decoupling Energy:                                               0.0371702716
  Recoupling Energy:                                              -0.0063753694
     5 OT DIIS     0.15E+00   21.8     0.00000547      -254.3381309883 -8.49E-07
  Decoupling Energy:                                               0.0371705165
  Recoupling Energy:                                              -0.0063753713
     6 OT DIIS     0.15E+00   21.8     0.00000189      -254.3381311294 -1.41E-07
  Decoupling Energy:                                               0.0371705410
  Recoupling Energy:                                              -0.0063753718
     7 OT DIIS     0.15E+00   21.8     0.00000064      -254.3381311482 -1.88E-08

  *** SCF run converged in     7 steps ***


  Electronic density on regular grids:       -179.9999999999        0.0000000001
  Core density on regular grids:              180.9999999999       -0.0000000001
  Total charge density on r-space grids:        1.0000000000
  Total charge density g-space grids:           1.0000000000

  Overlap energy of the core charge distribution:               0.00002358482383
  Self energy of the core charge distribution:               -615.71576003586028
  Core Hamiltonian energy:                                    191.34734475127098
  Hartree energy:                                             247.97608145525874
  Exchange-correlation energy:                                -61.44937210285992
  Hartree-Fock Exchange energy:                               -18.13041951256407
  QM/MM Electrostatic energy:                                   1.63397071171853

  Total energy:                                              -254.33813114821223

  outer SCF iter =    1 RMS gradient =   0.64E-06 energy =       -254.3381311482
  outer SCF loop converged in   1 iterations or    7 steps

  Decoupling Energy:                                               0.0371704683
  Recoupling Energy:                                              -0.0063753710

 ENERGY| Total FORCE_EVAL ( QMMM ) energy [a.u.]:          -1079.714052980358247

 MD| ***************************************************************************
 MD| Step number                                                               4
 MD| Time [fs]                                                          4.000000
 MD| Conserved quantity [hartree]                            -0.842113596137E+03
 MD| ---------------------------------------------------------------------------
 MD|                                          Instantaneous             Averages
 MD| CPU time per MD step [s]                    325.609260           447.175862
 MD| Energy drift per atom [K]           0.125938630426E+02   0.710283002865E+01
 MD| Potential energy [hartree]         -0.107971405298E+04  -0.107073926982E+04
 MD| Total kinetic energy [hartree]      0.237600456843E+03   0.227542982854E+03
 MD| QM kinetic energy [hartree]         0.148328744145E+00   0.124652615777E+00
 MD| Total temperature [K]                       297.869251           285.260638
 MD| QM temperature [K]                          459.200558           385.903293
 MD| ***************************************************************************

  Translating the system in order to center the QM fragment in the QM box.

 Number of electrons:                                                        180
 Number of occupied orbitals:                                                 90
 Number of molecular orbitals:                                                90

 Number of orbital functions:                                               1067
 Number of independent orbital functions:                                   1067

 Extrapolation method: ASPC


 SCF WAVEFUNCTION OPTIMIZATION

  ----------------------------------- OT ---------------------------------------
  Minimizer      : DIIS                : direct inversion
                                         in the iterative subspace
                                         using   7 DIIS vectors
                                         safer DIIS on
  Preconditioner : FULL_ALL            : diagonalization, state selective
  Precond_solver : DEFAULT
  stepsize       :    0.15000000                  energy_gap     :    0.08000000
  eps_taylor     :   0.10000E-15                  max_taylor     :             4
  ----------------------------------- OT ---------------------------------------

  Step     Update method      Time    Convergence         Total energy    Change
  ------------------------------------------------------------------------------
  Decoupling Energy:                                               0.0372101561
  Recoupling Energy:                                              -0.0063758441
     1 OT DIIS     0.15E+00   27.7     0.00032180      -253.7449283799 -2.54E+02
  Decoupling Energy:                                               0.0372072981
  Recoupling Energy:                                              -0.0063758030
     2 OT DIIS     0.15E+00   21.8     0.00013178      -253.7458482558 -9.20E-04
  Decoupling Energy:                                               0.0372093392
  Recoupling Energy:                                              -0.0063758210
     3 OT DIIS     0.15E+00   21.8     0.00006249      -253.7460072564 -1.59E-04
  Decoupling Energy:                                               0.0372088360
  Recoupling Energy:                                              -0.0063758158
     4 OT DIIS     0.15E+00   21.8     0.00002458      -253.7460384165 -3.12E-05
  Decoupling Energy:                                               0.0372096208
  Recoupling Energy:                                              -0.0063758219
     5 OT DIIS     0.15E+00   21.8     0.00000530      -253.7460409856 -2.57E-06
  Decoupling Energy:                                               0.0372093091
  Recoupling Energy:                                              -0.0063758193
     6 OT DIIS     0.15E+00   21.8     0.00000253      -253.7460411314 -1.46E-07
  Decoupling Energy:                                               0.0372093085
  Recoupling Energy:                                              -0.0063758192
     7 OT DIIS     0.15E+00   21.8     0.00000088      -253.7460411640 -3.26E-08

  *** SCF run converged in     7 steps ***


  Electronic density on regular grids:       -180.0000000000       -0.0000000000
  Core density on regular grids:              180.9999999999       -0.0000000001
  Total charge density on r-space grids:        0.9999999998
  Total charge density g-space grids:           0.9999999998

  Overlap energy of the core charge distribution:               0.00001841807778
  Self energy of the core charge distribution:               -615.71576003586028
  Core Hamiltonian energy:                                    191.22475788072552
  Hartree energy:                                             248.04794035081716
  Exchange-correlation energy:                                -61.41799297016221
  Hartree-Fock Exchange energy:                               -18.11952361885285
  QM/MM Electrostatic energy:                                   2.23451881125640

  Total energy:                                              -253.74604116399854

  outer SCF iter =    1 RMS gradient =   0.88E-06 energy =       -253.7460411640
  outer SCF loop converged in   1 iterations or    7 steps

  Decoupling Energy:                                               0.0372093360
  Recoupling Energy:                                              -0.0063758194

 ENERGY| Total FORCE_EVAL ( QMMM ) energy [a.u.]:          -1094.307010791879748

 MD| ***************************************************************************
 MD| Step number                                                               5
 MD| Time [fs]                                                          5.000000
 MD| Conserved quantity [hartree]                            -0.848389414995E+03
 MD| ---------------------------------------------------------------------------
 MD|                                          Instantaneous             Averages
 MD| CPU time per MD step [s]                    330.932761           423.927241
 MD| Energy drift per atom [K]           0.792355863426E+00   0.584073519561E+01
 MD| Potential energy [hartree]         -0.109430701079E+04  -0.107545281801E+04
 MD| Total kinetic energy [hartree]      0.245917595797E+03   0.231217905443E+03
 MD| QM kinetic energy [hartree]         0.157565621909E+00   0.131235217003E+00
 MD| Total temperature [K]                       308.296083           289.867727
 MD| QM temperature [K]                          487.796361           406.281906
 MD| ***************************************************************************

  Translating the system in order to center the QM fragment in the QM box.

 Number of electrons:                                                        180
 Number of occupied orbitals:                                                 90
 Number of molecular orbitals:                                                90

 Number of orbital functions:                                               1067
 Number of independent orbital functions:                                   1067

 Extrapolation method: ASPC


 SCF WAVEFUNCTION OPTIMIZATION

  ----------------------------------- OT ---------------------------------------
  Minimizer      : DIIS                : direct inversion
                                         in the iterative subspace
                                         using   7 DIIS vectors
                                         safer DIIS on
  Preconditioner : FULL_ALL            : diagonalization, state selective
  Precond_solver : DEFAULT
  stepsize       :    0.15000000                  energy_gap     :    0.08000000
  eps_taylor     :   0.10000E-15                  max_taylor     :             4
  ----------------------------------- OT ---------------------------------------

  Step     Update method      Time    Convergence         Total energy    Change
  ------------------------------------------------------------------------------
  Decoupling Energy:                                               0.0372439603
  Recoupling Energy:                                              -0.0063762167
     1 OT DIIS     0.15E+00   27.7     0.00049014      -253.1925107961 -2.53E+02
  Decoupling Energy:                                               0.0372419696
  Recoupling Energy:                                              -0.0063762268
     2 OT DIIS     0.15E+00   21.8     0.00019239      -253.1946639631 -2.15E-03
  Decoupling Energy:                                               0.0372396570
  Recoupling Energy:                                              -0.0063761950
     3 OT DIIS     0.15E+00   21.8     0.00008099      -253.1950218296 -3.58E-04
  Decoupling Energy:                                               0.0372398621
  Recoupling Energy:                                              -0.0063761985
     4 OT DIIS     0.15E+00   21.8     0.00002294      -253.1950808912 -5.91E-05
  Decoupling Energy:                                               0.0372388021
  Recoupling Energy:                                              -0.0063761872
     5 OT DIIS     0.15E+00   21.8     0.00000857      -253.1950835290 -2.64E-06
  Decoupling Energy:                                               0.0372394766
  Recoupling Energy:                                              -0.0063761927
     6 OT DIIS     0.15E+00   21.8     0.00000296      -253.1950838987 -3.70E-07
  Decoupling Energy:                                               0.0372392366
  Recoupling Energy:                                              -0.0063761906
     7 OT DIIS     0.15E+00   21.8     0.00000088      -253.1950839415 -4.28E-08

  *** SCF run converged in     7 steps ***


  Electronic density on regular grids:       -180.0000000000       -0.0000000000
  Core density on regular grids:              180.9999999999       -0.0000000001
  Total charge density on r-space grids:        0.9999999998
  Total charge density g-space grids:           0.9999999998

  Overlap energy of the core charge distribution:               0.00001843306316
  Self energy of the core charge distribution:               -615.71576003586028
  Core Hamiltonian energy:                                    191.21898014058974
  Hartree energy:                                             248.05851102052907
  Exchange-correlation energy:                                -61.40903292287872
  Hartree-Fock Exchange energy:                               -18.11645531293101
  QM/MM Electrostatic energy:                                   2.76865473603249

  Total energy:                                              -253.19508394145558

  outer SCF iter =    1 RMS gradient =   0.88E-06 energy =       -253.1950839415
  outer SCF loop converged in   1 iterations or    7 steps

  Decoupling Energy:                                               0.0372392220
  Recoupling Energy:                                              -0.0063761903

 ENERGY| Total FORCE_EVAL ( QMMM ) energy [a.u.]:          -1057.339964466523952

 MD| ***************************************************************************
 MD| Step number                                                               6
 MD| Time [fs]                                                          6.000000
 MD| Conserved quantity [hartree]                            -0.842900322831E+03
 MD| ---------------------------------------------------------------------------
 MD|                                          Instantaneous             Averages
 MD| CPU time per MD step [s]                    325.460063           407.516045
 MD| Energy drift per atom [K]           0.111144448284E+02   0.671968680108E+01
 MD| Potential energy [hartree]         -0.105733996447E+04  -0.107243400909E+04
 MD| Total kinetic energy [hartree]      0.214439641635E+03   0.228421528142E+03
 MD| QM kinetic energy [hartree]         0.141133310104E+00   0.132884899187E+00
 MD| Total temperature [K]                       268.833555           286.362032
 MD| QM temperature [K]                          436.924719           411.389042
 MD| ***************************************************************************

 -------------------------------------------------------------------------------
 -                                                                             -
 -                                DBCSR STATISTICS                             -
 -                                                                             -
 -------------------------------------------------------------------------------
 COUNTER                                    TOTAL       BLAS       SMM       ACC
 flops     9 x    26 x    26              2810808     100.0%      0.0%      0.0%
 flops    22 x    26 x    26              7287280     100.0%      0.0%      0.0%
 flops     9 x    32 x    32              8515584     100.0%      0.0%      0.0%
 flops    26 x    32 x    32             20766720     100.0%      0.0%      0.0%
 flops    22 x    32 x    58             22865920     100.0%      0.0%      0.0%
 flops    22 x    58 x    32             22865920     100.0%      0.0%      0.0%
 flops    22 x    32 x    32             34693120     100.0%      0.0%      0.0%
 flops    26 x    58 x    32             37639680     100.0%      0.0%      0.0%
 flops    26 x    32 x    58             37639680     100.0%      0.0%      0.0%
 flops    22 x    58 x    58             41444480     100.0%      0.0%      0.0%
 flops    32 x    32 x    32             51118080     100.0%      0.0%      0.0%
 flops    26 x    58 x    58             68221920     100.0%      0.0%      0.0%
 flops    71 x    32 x    32             81428480     100.0%      0.0%      0.0%
 flops    32 x    58 x    32             92651520     100.0%      0.0%      0.0%
 flops    32 x    32 x    58             92651520     100.0%      0.0%      0.0%
 flops    22 x    32 x   531             94203648     100.0%      0.0%      0.0%
 flops    22 x    32 x   536             95090688     100.0%      0.0%      0.0%
 flops    71 x    58 x    32            147589120     100.0%      0.0%      0.0%
 flops    71 x    32 x    58            147589120     100.0%      0.0%      0.0%
 flops    32 x    58 x    58            167930880     100.0%      0.0%      0.0%
 flops    22 x    58 x   531            170744112     100.0%      0.0%      0.0%
 flops    22 x    58 x   536            172351872     100.0%      0.0%      0.0%
 flops     9 x     9 x    32            203575680     100.0%      0.0%      0.0%
 flops    26 x    32 x   531            204107904     100.0%      0.0%      0.0%
 flops    26 x    32 x   536            206029824     100.0%      0.0%      0.0%
 flops    62 x    32 x    32            213319680     100.0%      0.0%      0.0%
 flops    84 x    32 x    32            240844800     100.0%      0.0%      0.0%
 flops    71 x    58 x    58            267505280     100.0%      0.0%      0.0%
 flops     9 x     9 x    58            368980920     100.0%      0.0%      0.0%
 flops    26 x    58 x   531            369945576     100.0%      0.0%      0.0%
 flops    26 x    58 x   536            373429056     100.0%      0.0%      0.0%
 flops    62 x    58 x    32            386641920     100.0%      0.0%      0.0%
 flops    62 x    32 x    58            386641920     100.0%      0.0%      0.0%
 flops    84 x    58 x    32            436531200     100.0%      0.0%      0.0%
 flops    84 x    32 x    58            436531200     100.0%      0.0%      0.0%
 flops    32 x    32 x   531            502419456     100.0%      0.0%      0.0%
 flops    32 x    32 x   536            507150336     100.0%      0.0%      0.0%
 flops    22 x     9 x    32            511822080     100.0%      0.0%      0.0%
 flops     9 x    22 x    32            512709120     100.0%      0.0%      0.0%
 flops    71 x    32 x   531            608041728     100.0%      0.0%      0.0%
 flops    71 x    32 x   536            613767168     100.0%      0.0%      0.0%
 flops    62 x    58 x    58            700788480     100.0%      0.0%      0.0%
 flops    84 x    58 x    58            791212800     100.0%      0.0%      0.0%
 flops     9 x    26 x     9            802701900     100.0%      0.0%      0.0%
 flops    32 x    58 x   531            910635264     100.0%      0.0%      0.0%
 flops    32 x    58 x   536            919209984     100.0%      0.0%      0.0%
 flops    22 x     9 x    58            927677520     100.0%      0.0%      0.0%
 flops     9 x    22 x    58            929285280     100.0%      0.0%      0.0%
 flops    71 x    58 x   531           1102075632     100.0%      0.0%      0.0%
 flops    71 x    58 x   536           1112452992     100.0%      0.0%      0.0%
 flops    22 x    22 x    32           1366041600     100.0%      0.0%      0.0%
 flops    62 x    32 x   531           1592898048     100.0%      0.0%      0.0%
 flops    62 x    32 x   536           1607897088     100.0%      0.0%      0.0%
 flops    84 x    32 x   531           1798433280     100.0%      0.0%      0.0%
 flops    84 x    32 x   536           1815367680     100.0%      0.0%      0.0%
 flops     9 x    32 x     9           1975881600     100.0%      0.0%      0.0%
 flops    22 x    26 x     9           2081079000     100.0%      0.0%      0.0%
 flops     9 x    26 x    22           2081079000     100.0%      0.0%      0.0%
 flops    22 x    22 x    58           2475950400     100.0%      0.0%      0.0%
 flops    62 x    58 x   531           2887127712     100.0%      0.0%      0.0%
 flops    62 x    58 x   536           2914313472     100.0%      0.0%      0.0%
 flops    84 x    58 x   531           3259660320     100.0%      0.0%      0.0%
 flops    84 x    58 x   536           3290353920     100.0%      0.0%      0.0%
 flops    22 x    32 x     9           5122656000     100.0%      0.0%      0.0%
 flops     9 x    32 x    22           5122656000     100.0%      0.0%      0.0%
 flops    22 x    26 x    22           5395390000     100.0%      0.0%      0.0%
 flops    22 x    32 x    22          13280960000     100.0%      0.0%      0.0%
 flops inhomo. stacks                  5066772480     100.0%      0.0%      0.0%
 flops total                        80.298652E+09     100.0%      0.0%      0.0%
 flops max/rank                     26.205796E+09     100.0%      0.0%      0.0%
 matmuls inhomo. stacks                      3248     100.0%      0.0%      0.0%
 matmuls total                            2790904     100.0%      0.0%      0.0%
 number of processed stacks                116407     100.0%      0.0%      0.0%
 average stack size                                    24.0       0.0       0.0
 marketing flops                    85.671830E+09
 -------------------------------------------------------------------------------
 # multiplications                           1286
 max memory usage/rank               7.796658E+09
 # max total images/rank                        1
 # max 3D layers                                1
 # MPI messages exchanged                   10288
 MPI messages size (bytes):
  total size                         3.724528E+09
  min size                           0.000000E+00
  max size                           2.298368E+06
  average size                     362.026438E+03
 MPI breakdown and total messages size (bytes):
             size <=      128                  70                        0
       128 < size <=     8192                1067                  8740864
      8192 < size <=    32768                3187                 60099680
     32768 < size <=   131072                   0                        0
    131072 < size <=  4194304                5964               3655687112
   4194304 < size <= 16777216                   0                        0
  16777216 < size                               0                        0
 -------------------------------------------------------------------------------
 -                                                                             -
 -                      DBCSR MESSAGE PASSING PERFORMANCE                      -
 -                                                                             -
 -------------------------------------------------------------------------------
 ROUTINE             CALLS      AVE VOLUME [Bytes]
 MP_Bcast               68                     12.
 MP_Allreduce         6884                      8.
 MP_Alltoall          5344                  84395.
 MP_ISend            10260                 101154.
 MP_IRecv            10260                  94442.
 -------------------------------------------------------------------------------

 -------------------------------------------------------------------------------
 -                                                                             -
 -                                GRID STATISTICS                              -
 -                                                                             -
 -------------------------------------------------------------------------------
 LP    KERNEL             BACKEND                              COUNT     PERCENT
 2     collocate ortho    REF                                1126269      19.23%
 2     integrate ortho    REF                                1106014      18.89%
 1     collocate ortho    REF                                 943978      16.12%
 1     integrate ortho    REF                                 870340      14.86%
 3     integrate ortho    REF                                 570062       9.74%
 3     collocate ortho    REF                                 500530       8.55%
 0     collocate ortho    REF                                 281245       4.80%
 0     integrate ortho    REF                                 249988       4.27%
 4     integrate ortho    REF                                 121240       2.07%
 4     collocate ortho    REF                                  73823       1.26%
 5     integrate ortho    REF                                   8201       0.14%
 0     collocate general  REF                                   1904       0.03%
 1     integrate general  REF                                   1904       0.03%
 -------------------------------------------------------------------------------

 MEMORY| Estimated peak process memory [MiB]                                7467

 -------------------------------------------------------------------------------
 -                                                                             -
 -                         MESSAGE PASSING PERFORMANCE                         -
 -                                                                             -
 -------------------------------------------------------------------------------

 ROUTINE             CALLS      AVE VOLUME [Bytes]
 MP_Group                8
 MP_Bcast             6914               10608252.
 MP_Allreduce         2394                1716794.
 MP_Sync               416
 MP_Alltoall          1330              286347493.
 MP_ISendRecv         1617                2477865.
 MP_Wait              2968
 MP_ISend             1015               15183448.
 MP_IRecv             1008               15283200.
 MP_Recv                14                 273152.
 -------------------------------------------------------------------------------


 -------------------------------------------------------------------------------
 -                                                                             -
 -                           R E F E R E N C E S                               -
 -                                                                             -
 -------------------------------------------------------------------------------
 
 CP2K version 8.2, the CP2K developers group (2021).
 CP2K is freely available from https://www.cp2k.org/ .

 Kuehne,Thomas D.; Iannuzzi,Marcella; Del Ben,Mauro;
 Rybkin,Vladimir V.; Seewald,Patrick; Stein,Frederick; Laino,Teodoro;
 Khaliullin,Rustam Z.; Schuett,Ole; Schiffmann,Florian; Golze,Dorothea;
 Wilhelm,Jan; Chulkov,Sergey; Bani-Hashemian,Mohammad Hossein;
 Weber,Valery; Borstnik,Urban; Taillefumier,Mathieu;
 Jakobovits,Alice Shoshana; Lazzaro,Alfio; Pabst,Hans; Mueller,Tiziano;
 Schade,Robert; Guidon,Manuel; Andermatt,Samuel; Holmberg,Nico;
 Schenter,Gregory K.; Hehn,Anna; Bussy,Augustin; Belleflamme,Fabian;
 Tabacchi,Gloria; Gloess,Andreas; Lass,Michael; Bethune,Iain;
 Mundy,Christopher J.; Plessl,Christian; Watkins,Matt;
 VandeVondele,Joost; Krack,Matthias; Hutter,Juerg. 
 The Journal of Chemical Physics, 152 (19), (2020). 
 CP2K: An electronic structure and molecular dynamics software package -
 Quickstep: Efficient and accurate electronic structure calculations.
 https://doi.org/10.1063/5.0007045

 Schuett, Ole; Messmer, Peter; Hutter, Juerg; VandeVondele, Joost. 
 Electronic Structure Calculations on Graphics Processing Units, John
 Wiley & Sons, Ltd, 173-190 (2016). 
 GPU-Accelerated Sparse Matrix-Matrix Multiplication for
 Linear Scaling Density Functional Theory.
 https://doi.org/10.1002/9781118670712.ch8

 Borstnik, U; VandeVondele, J; Weber, V; Hutter, J. 
 PARALLEL COMPUTING, 40 (5-6), 47-58 (2014). 
 Sparse matrix multiplication: The distributed block-compressed sparse
 row library.
 https://doi.org/10.1016/j.parco.2014.03.012

 Hutter, J; Iannuzzi, M; Schiffmann, F; VandeVondele, J. 
 WIREs Comput Mol Sci., 4 (1), 15-25 (2014). 
 CP2K: atomistic simulations of condensed matter systems.
 https://doi.org/10.1002/wcms.1159

 Marek, A; Blum, V; Johanni, R; Havu, V; Lang, B; Auckenthaler, T;
 Heinecke, A; Bungartz, H; Lederer, H. 
 Journal of Physics: Condensed Matter, 26 (21), (2014). 
 The ELPA library: scalable parallel eigenvalue solutions for
 electronic structure
 theory and computational science.
 https://doi.org/10.1088/0953-8984/26/21/213201

 Guidon, M; Hutter, J; VandeVondele, J. 
 JOURNAL OF CHEMICAL THEORY AND COMPUTATION, 5 (11), 3010-3021 (2009). 
 Robust Periodic Hartree-Fock Exchange for Large-Scale Simulations Using
 Gaussian Basis Sets.
 https://doi.org/10.1021/ct900494g

 Guidon, M; Schiffmann, F; Hutter, J; VandeVondele, J. 
 JOURNAL OF CHEMICAL PHYSICS, 128 (21), 214104 (2008). 
 Ab initio molecular dynamics using hybrid density functionals.
 https://doi.org/10.1063/1.2931945

 Kuhne, TD; Krack, M; Mohamed, FR; Parrinello, M. 
 PHYSICAL REVIEW LETTERS, 98 (6), 066401 (2007). 
 Efficient and accurate Car-Parrinello-like approach to
 Born-Oppenheimer molecular dynamics.
 https://doi.org/10.1103/PhysRevLett.98.066401

 Laino, T; Mohamed, F; Laio, A; Parrinello, M. 
 JOURNAL OF CHEMICAL THEORY AND COMPUTATION, 2 (5), 1370-1378 (2006). 
 An efficient linear-scaling electrostatic coupling for treating
 periodic boundary conditions in QM/MM simulations.
 https://doi.org/10.1021/ct6001169

 Laino, T; Mohamed, F; Laio, A; Parrinello, M. 
 JOURNAL OF CHEMICAL THEORY AND COMPUTATION, 1 (6), 1176-1184 (2005). 
 An efficient real space multigrid QM/MM electrostatic coupling.
 https://doi.org/10.1021/ct050123f

 Krack, M. 
 THEORETICAL CHEMISTRY ACCOUNTS, 114 (1-3), 145-152 (2005). 
 Pseudopotentials for H to Kr optimized for gradient-corrected
 exchange-correlation functionals.
 https://doi.org/10.1007/s00214-005-0655-y

 VandeVondele, J; Krack, M; Mohamed, F; Parrinello, M; Chassaing, T;
 Hutter, J. COMPUTER PHYSICS COMMUNICATIONS, 167 (2), 103-128 (2005). 
 QUICKSTEP: Fast and accurate density functional calculations using a
 mixed Gaussian and plane waves approach.
 https://doi.org/10.1016/j.cpc.2004.12.014

 Frigo, M; Johnson, SG. 
 PROCEEDINGS OF THE IEEE, 93 (2), 216-231 (2005). 
 The design and implementation of FFTW3.
 https://doi.org/10.1109/JPROC.2004.840301

 Kolafa, J. 
 JOURNAL OF COMPUTATIONAL CHEMISTRY, 25 (3), 335-342 (2004). 
 Time-reversible always stable predictor-corrector method for molecular dynamics of polarizable molecules.
 https://doi.org/10.1002/jcc.10385

 VandeVondele, J; Hutter, J. 
 JOURNAL OF CHEMICAL PHYSICS, 118 (10), 4365-4369 (2003). 
 An efficient orbital transformation method for electronic structure
 calculations.
 https://doi.org/10.1063/1.1543154

 Hartwigsen, C; Goedecker, S; Hutter, J. 
 PHYSICAL REVIEW B, 58 (7), 3641-3662 (1998). 
 Relativistic separable dual-space Gaussian pseudopotentials from H to Rn.
 https://doi.org/10.1103/PhysRevB.58.3641

 Lippert, G; Hutter, J; Parrinello, M. 
 MOLECULAR PHYSICS, 92 (3), 477-487 (1997). 
 A hybrid Gaussian and plane wave density functional scheme.
 https://doi.org/10.1080/002689797170220

 Perdew, JP; Burke, K; Ernzerhof, M. 
 PHYSICAL REVIEW LETTERS, 77 (18), 3865-3868 (1996). 
 Generalized gradient approximation made simple.
 https://doi.org/10.1103/PhysRevLett.77.3865

 Goedecker, S; Teter, M; Hutter, J. 
 PHYSICAL REVIEW B, 54 (3), 1703-1710 (1996). 
 Separable dual-space Gaussian pseudopotentials.
 https://doi.org/10.1103/PhysRevB.54.1703

 ESSMANN, U; PERERA, L; BERKOWITZ, ML; DARDEN, T; LEE, H; PEDERSEN, LG. 
 JOURNAL OF CHEMICAL PHYSICS, 103 (19), 8577-8593 (1995). 
 A SMOOTH PARTICLE MESH EWALD METHOD.
 https://doi.org/10.1063/1.470117

 BLOCHL, PE. 
 JOURNAL OF CHEMICAL PHYSICS, 103 (17), 7422-7428 (1995). 
 ELECTROSTATIC DECOUPLING OF PERIODIC IMAGES OF PLANE-WAVE-EXPANDED
 DENSITIES AND DERIVED ATOMIC POINT CHARGES.
 https://doi.org/10.1063/1.470314


 -------------------------------------------------------------------------------
 -                                                                             -
 -                                T I M I N G                                  -
 -                                                                             -
 -------------------------------------------------------------------------------
 SUBROUTINE                       CALLS  ASD         SELF TIME        TOTAL TIME
                                MAXIMUM       AVERAGE  MAXIMUM  AVERAGE  MAXIMUM
 CP2K                                 1  1.0    0.210    0.222 2490.320 2490.320
 qs_mol_dyn_low                       1  2.0    0.333    0.336 2446.410 2447.579
 velocity_verlet                      6  3.0    0.094    0.099 2048.971 2049.609
 qs_forces                            7  3.9    0.001    0.001 1872.837 1872.837
 rebuild_ks_matrix                   63  8.5    0.000    0.000 1788.348 1788.355
 qs_ks_build_kohn_sham_matrix        63  9.5    0.022    0.022 1788.348 1788.355
 hfx_ks_matrix                       63 10.5    0.002    0.002 1526.698 1526.727
 qs_energies                          7  4.9    0.002    0.002 1281.930 1281.930
 scf_env_do_scf                       7  5.9    0.000    0.001 1267.941 1267.941
 qs_ks_update_qs_env                 63  7.8    0.001    0.001 1197.802 1197.809
 integrate_four_center               63 11.5    3.380    3.829 1081.900 1081.929
 scf_env_do_scf_inner_loop           56  6.8    0.002    0.004 1070.456 1070.461
 integrate_four_center_main          63 12.5    5.329    6.633 1063.209 1066.964
 integrate_four_center_bin         4031 13.5 1057.880 1060.331 1057.880 1060.331
 qs_ks_update_qs_env_forces           7  4.9    0.000    0.000  590.569  590.570
 derivatives_four_center              7  8.9    0.071    0.270  444.778  444.778
 derivatives_four_center_main         7  9.9    1.767    2.938  444.036  444.036
 derivatives_four_center_bin        460 10.9  440.889  442.689  440.889  442.689
 qmmm_el_coupling                     7  3.9    0.000    0.000  305.891  305.905
 qmmm_elec_with_gaussian              7  4.9    0.817    0.820  305.847  305.864
 qmmm_elec_with_gaussian_low          7  5.9    0.000    0.000  285.785  287.725
 qmmm_forces                          7  3.9    0.018    0.018  237.566  237.567
 qmmm_forces_with_gaussian            7  4.9    0.914    0.918  233.224  234.572
 pw_transfer                       1337 12.0    0.108    0.116  230.006  234.244
 fft_wrap_pw1pw2                   1113 13.1    0.014    0.015  226.021  230.272
 fft_wrap_pw1pw2_200                707 14.4   20.781   20.880  222.431  226.754
 qmmm_force_with_gaussian_low         7  5.9    0.000    0.000  211.891  213.156
 init_scf_loop                        7  6.9    0.000    0.000  197.475  197.476
 qmmm_elec_gaussian_low_R             7  6.9    0.000    0.000  184.568  187.127
 qmmm_elec_with_gaussian_LG           7  7.9  184.568  187.126  184.568  187.126
 qs_vxc_create                       63 10.5    0.011    0.011  180.054  180.056
 xc_vxc_pw_create                    63 11.5    3.603    4.148  180.044  180.045
 qmmm_forces_gaussian_low_R           7  6.9    0.000    0.000  173.793  175.030
 qmmm_forces_with_gaussian_LG         7  7.9  173.793  175.030  173.793  175.030
 fft3d_ps                          1113 15.1  129.032  129.704  170.278  174.464
 qmmm_elec_gaussian_low_G             7  6.9  101.217  102.014  101.217  102.014
 xc_rho_set_and_dset_create          63 12.5    1.125    1.140   95.370   99.025
 qs_rho_update_rho                   63  7.9    0.000    0.000   75.106   75.107
 calculate_rho_elec                  63  8.9    1.855    1.856   75.106   75.107
 density_rs2pw                       63  9.9    0.004    0.004   52.434   52.919
 -------------------------------------------------------------------------------

 The number of warnings for this run is : 0
 
 -------------------------------------------------------------------------------
  **** **** ******  **  PROGRAM ENDED AT                 2021-09-06 15:32:01.727
 ***** ** ***  *** **   PROGRAM RAN ON                                 nid001430
 **    ****   ******    PROGRAM RAN BY                                     hjbio
 ***** **    ** ** **   PROGRAM PROCESS ID                                123937
  **** **  *******  **  PROGRAM STOPPED IN /lus/cls01095/work/d118/d118/hjbio/qm
                                           mm-benchmarking/archer2/CPU/cp2kMD/CB
                                           D_PHY-PBE0/6STEPS/1NODES/32CPN/8THREA
                                           DS
