 DBCSR| CPU Multiplication driver                                           BLAS
 DBCSR| Multrec recursion limit                                              512
 DBCSR| Multiplication stack size                                           1000
 DBCSR| Maximum elements for images                                    UNLIMITED
 DBCSR| Multiplicative factor virtual images                                   1
 DBCSR| Use multiplication densification                                       T
 DBCSR| Multiplication size stacks                                             3
 DBCSR| Use memory pool for CPU allocation                                     F
 DBCSR| Number of 3D layers                                               SINGLE
 DBCSR| Use MPI memory allocation                                              F
 DBCSR| Use RMA algorithm                                                      F
 DBCSR| Use Communication thread                                               T
 DBCSR| Communication thread load                                             87
 DBCSR| MPI: My node id                                                        0
 DBCSR| MPI: Number of nodes                                                 256
 DBCSR| OMP: Current number of threads                                         1
 DBCSR| OMP: Max number of threads                                             1
 DBCSR| Split modifier for TAS multiplication algorithm                  1.0E+00


  **** **** ******  **  PROGRAM STARTED AT               2021-09-06 15:54:04.711
 ***** ** ***  *** **   PROGRAM STARTED ON                             nid001007
 **    ****   ******    PROGRAM STARTED BY                                 hjbio
 ***** **    ** ** **   PROGRAM PROCESS ID                                 57812
  **** **  *******  **  PROGRAM STARTED IN /lus/cls01095/work/d118/d118/hjbio/qm
                                           mm-benchmarking/archer2/CPU/cp2kMD/MQ
                                           AE-B3LYP/6STEPS/2NODES/128CPN/1THREAD
                                           S

 CP2K| version string:                                          CP2K version 8.2
 CP2K| source code revision number:                                  git:310b7ab
 CP2K| cp2kflags: omp libint fftw3 libxc elpa parallel mpi3 scalapack plumed2   
 CP2K| is freely available from                            https://www.cp2k.org/
 CP2K| Program compiled at                          Thu 10 Jun 17:43:51 BST 2021
 CP2K| Program compiled on                                                 uan01
 CP2K| Program compiled for                                              ARCHER2
 CP2K| Data directory path              /work/d118/d118/hjbio/CP2K/cp2k-8.2/data
 CP2K| Input file name                                             mqae-cp2k.inp

 GLOBAL| Force Environment number                                              1
 GLOBAL| Basis set file name                                     EMSL_BASIS_SETS
 GLOBAL| Potential file name                                           POTENTIAL
 GLOBAL| MM Potential file name                                     MM_POTENTIAL
 GLOBAL| Coordinate file name                                           mqae.pdb
 GLOBAL| Method name                                                        CP2K
 GLOBAL| Project name                                                 MQAE-B3LYP
 GLOBAL| Run type                                                             MD
 GLOBAL| FFT library                                                       FFTW3
 GLOBAL| Diagonalization library                                            ELPA
 GLOBAL| Minimum number of eigenvectors for ELPA usage                        16
 GLOBAL| Orthonormality check for eigenvectors                          DISABLED
 GLOBAL| Matrix multiplication library                                    SCALAP
 GLOBAL| All-to-all communication in single precision                          F
 GLOBAL| FFTs using library dependent lengths                                  F
 GLOBAL| Grid backend                                                       AUTO
 GLOBAL| Global print level                                                  LOW
 GLOBAL| MPI I/O enabled                                                       T
 GLOBAL| Total number of message passing processes                           256
 GLOBAL| Number of threads for this process                                    1
 GLOBAL| This output is from process                                           0
 GLOBAL| CPU model name                          AMD EPYC 7742 64-Core Processor
 GLOBAL| CPUID                                                              1002

 MEMORY| system memory details [Kb]
 MEMORY|                        rank 0           min           max       average
 MEMORY| MemTotal            263568576     263568576     263568576     263568576
 MEMORY| MemFree             161495400     161495400     239683588     200589494
 MEMORY| Buffers                180668        164172        180668        172420
 MEMORY| Cached               52418788       2299192      52418788      27358990
 MEMORY| Slab                 18857388       1818144      18857388      10337766
 MEMORY| SReclaimable           823456        206004        823456        514730
 MEMORY| MemLikelyFree       214918312     214918312     242352956     228635634



                      ************* ******** ***********   
                     ************* **********************  
                     ****     **** ****      ***********   
                     ******** ****  *******     ****       
                     *******  ****   *******   ****        
                     ****     ****       ****  ****        
                     ****     **** **********  ****        
                      ****     **** ********    ****       
                     FRONTIERS IN SIMULATION TECHNOLOGY    
                                                           
                        C.J. Mundy, S. Balasubramanian,    
                     Ken Bagchi, J. Hutter, Ari Seitsonen  
                      IFW Kuo, T. Laino, J. VandeVondele   
                                 Version 1.0               

                                                           


 EWALD| Summation is done by:                                               SPME
 EWALD| Alpha parameter [       ANGSTROM^-1]                              0.4000
 EWALD| Real Space Cutoff [          ANGSTROM]                            8.4348
 EWALD| G-space max. Miller index                         80        80        80
 EWALD| Spline interpolation order                                             6

 FORCEFIELD| WARNING: A non Critical ForceField parameter is missing! CP2K GOES!
 FORCEFIELD| Non critical parameters are:Urey-Bradley,Torsions,Impropers, Opbends and 1-4
 FORCEFIELD| All missing parameters will not contribute to the potential energy!
 FORCEFIELD| Activate the print key FF_INFO to have a list of missing parameters

 CHARGE_INFO| Total Charge of the Classical System:                     0.000000

 SPLINE_INFO| Generating 465 splines for NONBONDED14 interactions 
              Due to 30 different atomic kinds
  ...46  ...92  ...138  ...184  ...230  ...276  ...322  ...368  ...414  ...460
 SPLINE_INFO| Number of unique splines computed:            22
 SPLINE_INFO| Done

 SPLINE_INFO| Generating 465 splines for NONBONDED interactions 
              Due to 30 different atomic kinds
  ...46  ...92  ...138  ...184  ...230  ...276  ...322  ...368  ...414  ...460
 SPLINE_INFO| Number of unique splines computed:            22
 SPLINE_INFO| Done

 *******************************************************************************
 *******************************************************************************
 **                                                                           **
 **     #####                         ##              ##                      **
 **    ##   ##            ##          ##              ##                      **
 **   ##     ##                       ##            ######                    **
 **   ##     ##  ##   ##  ##   #####  ##  ##   ####   ##    #####    #####    **
 **   ##     ##  ##   ##  ##  ##      ## ##   ##      ##   ##   ##  ##   ##   **
 **   ##  ## ##  ##   ##  ##  ##      ####     ###    ##   ######   ######    **
 **    ##  ###   ##   ##  ##  ##      ## ##      ##   ##   ##       ##        **
 **     #######   #####   ##   #####  ##  ##  ####    ##    #####   ##        **
 **           ##                                                    ##        **
 **                                                                           **
 **                                                ... make the atoms dance   **
 **                                                                           **
 **            Copyright (C) by CP2K developers group (2000-2021)             **
 **                      J. Chem. Phys. 152, 194103 (2020)                    **
 **                                                                           **
 *******************************************************************************


 TOTAL NUMBERS AND MAXIMUM NUMBERS

  Total number of            - Atomic kinds:                                   4
                             - Atoms:                                         34
                             - Shell sets:                                   120
                             - Shells:                                       156
                             - Primitive Cartesian functions:                278
                             - Cartesian basis functions:                    350
                             - Spherical basis functions:                    332

  Maximum angular momentum of- Orbital basis functions:                        2
                             - Local part of the GTH pseudopotential:          2
                             - Non-local part of the GTH pseudopotential:      0


 SCF PARAMETERS         Density guess:                                   RESTART
                        --------------------------------------------------------
                        max_scf:                                              20
                        max_scf_history:                                       0
                        max_diis:                                              4
                        --------------------------------------------------------
                        eps_scf:                                        1.00E-06
                        eps_scf_history:                                0.00E+00
                        eps_diis:                                       1.00E-01
                        eps_eigval:                                     1.00E-05
                        --------------------------------------------------------
                        level_shift [a.u.]:                                 0.00
                        --------------------------------------------------------
                        Outer loop SCF in use 
                        No variables optimised in outer loop
                        eps_scf                                         1.00E-06
                        max_scf                                               20
                        No outer loop optimization
                        step_size                                       5.00E-01

 *******************************************************************************
 *******************************************************************************
 **                                                                           **
 **             #######  ##     ## ##     ## ##     ##                        **
 **            ##     ## ###   ### ###   ### ###   ###                        **
 **            ##     ## #### #### #### #### #### ####                        **
 **            ##     ## ## ### ## ## ### ## ## ### ##                        **
 **            ##  ## ## ##     ## ##     ## ##     ##                        **
 **            ##    ##  ##     ## ##     ## ##     ##  T.Laino and F.Mohamed **
 **             ##### ## ##     ## ##     ## ##     ##  2005 - 2015           **
 **                                                                           **
 **                                                     Calculation Started.. **
 *******************************************************************************
 *******************************************************************************

 MD_PAR| Molecular dynamics protocol (MD input parameters)
 MD_PAR| Ensemble type                                                       NVE
 MD_PAR| Number of time steps                                                  6
 MD_PAR| Time step [fs]                                                 1.000000
 MD_PAR| Temperature [K]                                              300.000000
 MD_PAR| Temperature tolerance [K]                                      0.000000
 MD_PAR| Print MD information every                                    1 step(s)
 MD_PAR| File type   Print frequency [steps]                          File names
 MD_PAR| Coordinates          1                             MQAE-B3LYP-pos-1.xyz
 MD_PAR| Velocities           1                             MQAE-B3LYP-vel-1.xyz
 MD_PAR| Energies             1                                MQAE-B3LYP-1.ener
 MD_PAR| Dump                20                             MQAE-B3LYP-1.restart

 ROT| Rotational analysis information
 ROT| Principal axes and moments of inertia [a.u.]
 ROT|                           1                   2                   3
 ROT| Eigenvalues      8.16955424013E+10   8.26770351780E+10   8.33145263212E+10
 ROT|      x              0.339476722416      0.927826629059     -0.154574581827
 ROT|      y              0.779693760491     -0.369496170761     -0.505519751982
 ROT|      z              0.526149403486     -0.051091351539      0.848855982490
 ROT| Number of rotovibrational vectors                                        6

 DOF| Calculation of degrees of freedom
 DOF| Number of atoms                                                       7186
 DOF| Number of intramolecular constraints                                     0
 DOF| Number of intermolecular constraints                                     0
 DOF| Invariants (translations + rotations)                                    3
 DOF| Degrees of freedom                                                   21555

 DOF| Restraints information
 DOF| Number of intramolecular restraints                                      0
 DOF| Number of intermolecular restraints                                      0

 MD_VEL| Velocities initialization
 MD_VEL| Initial temperature [K]                                      300.000000
 MD_VEL| COM velocity            -0.0000000000     0.0000000000    -0.0000000000

  Translating the system in order to center the QM fragment in the QM box.

 Number of electrons:                                                         94
 Number of occupied orbitals:                                                 47
 Number of molecular orbitals:                                                47

 Number of orbital functions:                                                332
 Number of independent orbital functions:                                    332

 Extrapolation method: initial_guess


 SCF WAVEFUNCTION OPTIMIZATION

  ----------------------------------- OT ---------------------------------------
  Minimizer      : DIIS                : direct inversion
                                         in the iterative subspace
                                         using   7 DIIS vectors
                                         safer DIIS on
  Preconditioner : FULL_ALL            : diagonalization, state selective
  Precond_solver : DEFAULT
  stepsize       :    0.15000000                  energy_gap     :    0.08000000
  eps_taylor     :   0.10000E-15                  max_taylor     :             4
  ----------------------------------- OT ---------------------------------------

  Step     Update method      Time    Convergence         Total energy    Change
  ------------------------------------------------------------------------------
  Decoupling Energy:                                               0.0724473674
  Recoupling Energy:                                              -0.0186060468
     1 OT DIIS     0.15E+00    3.1     0.00000025      -146.5978854948 -1.47E+02

  *** SCF run converged in     1 steps ***


  Electronic density on regular grids:        -94.0000117893       -0.0000117893
  Core density on regular grids:               94.9999999999       -0.0000000001
  Total charge density on r-space grids:        0.9999882107
  Total charge density g-space grids:           0.9999882107

  Overlap energy of the core charge distribution:               0.00000599177744
  Self energy of the core charge distribution:               -359.57183942644110
  Core Hamiltonian energy:                                    110.60578196142495
  Hartree energy:                                             145.61977572034107
  Exchange-correlation energy:                                -35.09004203385040
  Hartree-Fock Exchange energy:                                -7.83563029228630
  QM/MM Electrostatic energy:                                  -0.32593741579681

  Total energy:                                              -146.59788549483116

  outer SCF iter =    1 RMS gradient =   0.25E-06 energy =       -146.5978854948
  outer SCF loop converged in   1 iterations or    1 steps

  Decoupling Energy:                                               0.0724473841
  Recoupling Energy:                                              -0.0186060464

 ENERGY| Total FORCE_EVAL ( QMMM ) energy [a.u.]:           -125.274785505654705

 MD_INI| MD initialization
 MD_INI| Potential energy [hartree]                          -0.125274785506E+03
 MD_INI| Total kinetic energy [hartree]                       0.102391057087E+02
 MD_INI| QM kinetic energy [hartree]                          0.538313910515E-01
 MD_INI| Total temperature [K]                                        300.000000
 MD_INI| QM temperature [K]                                           333.305658
 MD_INI| Cell volume [bohr^3]                                 4.911308927827E+05
 MD_INI| Cell volume [ang^3]                                  7.277808868775E+04
 MD_INI| Cell lengths [bohr]      7.88979558E+01  7.88979558E+01  7.88979558E+01
 MD_INI| Cell lengths [ang]       4.17510000E+01  4.17510000E+01  4.17510000E+01
 MD_INI| Cell angles [deg]        9.00000000E+01  9.00000000E+01  9.00000000E+01

  Translating the system in order to center the QM fragment in the QM box.

 Number of electrons:                                                         94
 Number of occupied orbitals:                                                 47
 Number of molecular orbitals:                                                47

 Number of orbital functions:                                                332
 Number of independent orbital functions:                                    332

 Extrapolation method: ASPC


 SCF WAVEFUNCTION OPTIMIZATION

  ----------------------------------- OT ---------------------------------------
  Minimizer      : DIIS                : direct inversion
                                         in the iterative subspace
                                         using   7 DIIS vectors
                                         safer DIIS on
  Preconditioner : FULL_ALL            : diagonalization, state selective
  Precond_solver : DEFAULT
  stepsize       :    0.15000000                  energy_gap     :    0.08000000
  eps_taylor     :   0.10000E-15                  max_taylor     :             4
  ----------------------------------- OT ---------------------------------------

  Step     Update method      Time    Convergence         Total energy    Change
  ------------------------------------------------------------------------------
  Decoupling Energy:                                               0.0724407826
  Recoupling Energy:                                              -0.0186065708
     1 OT DIIS     0.15E+00    0.7     0.00263037      -146.4802501080 -1.46E+02
  Decoupling Energy:                                               0.0723365316
  Recoupling Energy:                                              -0.0186021826
     2 OT DIIS     0.15E+00    0.2     0.00099624      -146.4905838884 -1.03E-02
  Decoupling Energy:                                               0.0723590126
  Recoupling Energy:                                              -0.0186027231
     3 OT DIIS     0.15E+00    0.2     0.00037681      -146.4922803024 -1.70E-03
  Decoupling Energy:                                               0.0723311219
  Recoupling Energy:                                              -0.0186016346
     4 OT DIIS     0.15E+00    0.2     0.00013916      -146.4924802489 -2.00E-04
  Decoupling Energy:                                               0.0723461377
  Recoupling Energy:                                              -0.0186022886
     5 OT DIIS     0.15E+00    0.2     0.00005108      -146.4924955696 -1.53E-05
  Decoupling Energy:                                               0.0723413020
  Recoupling Energy:                                              -0.0186020528
     6 OT DIIS     0.15E+00    0.2     0.00001941      -146.4924979250 -2.36E-06
  Decoupling Energy:                                               0.0723421382
  Recoupling Energy:                                              -0.0186021340
     7 OT DIIS     0.15E+00    0.2     0.00000594      -146.4924982444 -3.19E-07
  Decoupling Energy:                                               0.0723424422
  Recoupling Energy:                                              -0.0186021302
     8 OT DIIS     0.15E+00    0.2     0.00000286      -146.4924982880 -4.35E-08
  Decoupling Energy:                                               0.0723422726
  Recoupling Energy:                                              -0.0186021330
     9 OT DIIS     0.15E+00    0.2     0.00000098      -146.4924982944 -6.41E-09

  *** SCF run converged in     9 steps ***


  Electronic density on regular grids:        -93.9999622185        0.0000377815
  Core density on regular grids:               94.9999999999       -0.0000000001
  Total charge density on r-space grids:        1.0000377814
  Total charge density g-space grids:           1.0000377814

  Overlap energy of the core charge distribution:               0.00003300554568
  Self energy of the core charge distribution:               -359.57183942644110
  Core Hamiltonian energy:                                    110.79920973813329
  Hartree energy:                                             145.51960222275937
  Exchange-correlation energy:                                -35.13733570501823
  Hartree-Fock Exchange energy:                                -7.84763450660974
  QM/MM Electrostatic energy:                                  -0.25453362274844

  Total energy:                                              -146.49249829437917

  outer SCF iter =    1 RMS gradient =   0.98E-06 energy =       -146.4924982944
  outer SCF loop converged in   1 iterations or    9 steps

  Decoupling Energy:                                               0.0723422903
  Recoupling Energy:                                              -0.0186021301

 ENERGY| Total FORCE_EVAL ( QMMM ) energy [a.u.]:           -154.709368841849880

 MD| ***************************************************************************
 MD| Step number                                                               1
 MD| Time [fs]                                                          1.000000
 MD| Conserved quantity [hartree]                            -0.123704334440E+03
 MD| ---------------------------------------------------------------------------
 MD|                                          Instantaneous             Averages
 MD| CPU time per MD step [s]                     25.417904            25.417904
 MD| Energy drift per atom [K]          -0.380926992435E+03   0.000000000000E+00
 MD| Potential energy [hartree]         -0.154709368842E+03  -0.154709368842E+03
 MD| Total kinetic energy [hartree]      0.310050344020E+02   0.310050344020E+02
 MD| QM kinetic energy [hartree]         0.223321771739E+00   0.223321771739E+00
 MD| Total temperature [K]                       908.429953           908.429953
 MD| QM temperature [K]                         1382.732428          1382.732428
 MD| ***************************************************************************

  Translating the system in order to center the QM fragment in the QM box.

 Number of electrons:                                                         94
 Number of occupied orbitals:                                                 47
 Number of molecular orbitals:                                                47

 Number of orbital functions:                                                332
 Number of independent orbital functions:                                    332

 Extrapolation method: ASPC


 SCF WAVEFUNCTION OPTIMIZATION

  ----------------------------------- OT ---------------------------------------
  Minimizer      : DIIS                : direct inversion
                                         in the iterative subspace
                                         using   7 DIIS vectors
                                         safer DIIS on
  Preconditioner : FULL_ALL            : diagonalization, state selective
  Precond_solver : DEFAULT
  stepsize       :    0.15000000                  energy_gap     :    0.08000000
  eps_taylor     :   0.10000E-15                  max_taylor     :             4
  ----------------------------------- OT ---------------------------------------

  Step     Update method      Time    Convergence         Total energy    Change
  ------------------------------------------------------------------------------
  Decoupling Energy:                                               0.0721845841
  Recoupling Energy:                                              -0.0185949985
     1 OT DIIS     0.15E+00    0.7     0.00185752      -146.0905932062 -1.46E+02
  Decoupling Energy:                                               0.0722248956
  Recoupling Energy:                                              -0.0185963790
     2 OT DIIS     0.15E+00    0.2     0.00072560      -146.0958931605 -5.30E-03
  Decoupling Energy:                                               0.0721948660
  Recoupling Energy:                                              -0.0185954501
     3 OT DIIS     0.15E+00    0.2     0.00026844      -146.0968345750 -9.41E-04
  Decoupling Energy:                                               0.0722087871
  Recoupling Energy:                                              -0.0185954275
     4 OT DIIS     0.15E+00    0.2     0.00012110      -146.0969234306 -8.89E-05
  Decoupling Energy:                                               0.0721999950
  Recoupling Energy:                                              -0.0185952985
     5 OT DIIS     0.15E+00    0.2     0.00003153      -146.0969342497 -1.08E-05
  Decoupling Energy:                                               0.0722023721
  Recoupling Energy:                                              -0.0185953923
     6 OT DIIS     0.15E+00    0.2     0.00001130      -146.0969353811 -1.13E-06
  Decoupling Energy:                                               0.0722015021
  Recoupling Energy:                                              -0.0185953185
     7 OT DIIS     0.15E+00    0.2     0.00000428      -146.0969354919 -1.11E-07
  Decoupling Energy:                                               0.0722015963
  Recoupling Energy:                                              -0.0185953407
     8 OT DIIS     0.15E+00    0.2     0.00000189      -146.0969355116 -1.97E-08
  Decoupling Energy:                                               0.0722016016
  Recoupling Energy:                                              -0.0185953342
     9 OT DIIS     0.15E+00    0.2     0.00000068      -146.0969355144 -2.81E-09

  *** SCF run converged in     9 steps ***


  Electronic density on regular grids:        -93.9999770609        0.0000229391
  Core density on regular grids:               94.9999999999       -0.0000000001
  Total charge density on r-space grids:        1.0000229390
  Total charge density g-space grids:           1.0000229390

  Overlap energy of the core charge distribution:               0.00018049483875
  Self energy of the core charge distribution:               -359.57183942644110
  Core Hamiltonian energy:                                    111.01599221140057
  Hartree energy:                                             145.42964096067624
  Exchange-correlation energy:                                -35.18728693375805
  Hartree-Fock Exchange energy:                                -7.85996289597920
  QM/MM Electrostatic energy:                                   0.07634007484133

  Total energy:                                              -146.09693551442149

  outer SCF iter =    1 RMS gradient =   0.68E-06 energy =       -146.0969355144
  outer SCF loop converged in   1 iterations or    9 steps

  Decoupling Energy:                                               0.0722015872
  Recoupling Energy:                                              -0.0185953354

 ENERGY| Total FORCE_EVAL ( QMMM ) energy [a.u.]:           -147.708765252066939

 MD| ***************************************************************************
 MD| Step number                                                               2
 MD| Time [fs]                                                          2.000000
 MD| Conserved quantity [hartree]                            -0.119951859878E+03
 MD| ---------------------------------------------------------------------------
 MD|                                          Instantaneous             Averages
 MD| CPU time per MD step [s]                      8.590151            17.004028
 MD| Energy drift per atom [K]          -0.216031872260E+03  -0.108015936130E+03
 MD| Potential energy [hartree]         -0.147708765252E+03  -0.151209067047E+03
 MD| Total kinetic energy [hartree]      0.277569053742E+02   0.293809698881E+02
 MD| QM kinetic energy [hartree]         0.278584000021E+00   0.250952885880E+00
 MD| Total temperature [K]                       813.261612           860.845783
 MD| QM temperature [K]                         1724.897343          1553.814886
 MD| ***************************************************************************

  Translating the system in order to center the QM fragment in the QM box.

 Number of electrons:                                                         94
 Number of occupied orbitals:                                                 47
 Number of molecular orbitals:                                                47

 Number of orbital functions:                                                332
 Number of independent orbital functions:                                    332

 Extrapolation method: ASPC


 SCF WAVEFUNCTION OPTIMIZATION

  ----------------------------------- OT ---------------------------------------
  Minimizer      : DIIS                : direct inversion
                                         in the iterative subspace
                                         using   7 DIIS vectors
                                         safer DIIS on
  Preconditioner : FULL_ALL            : diagonalization, state selective
  Precond_solver : DEFAULT
  stepsize       :    0.15000000                  energy_gap     :    0.08000000
  eps_taylor     :   0.10000E-15                  max_taylor     :             4
  ----------------------------------- OT ---------------------------------------

  Step     Update method      Time    Convergence         Total energy    Change
  ------------------------------------------------------------------------------
  Decoupling Energy:                                               0.0719990424
  Recoupling Energy:                                              -0.0185861541
     1 OT DIIS     0.15E+00    0.7     0.00309059      -145.7597844572 -1.46E+02
  Decoupling Energy:                                               0.0720990803
  Recoupling Energy:                                              -0.0185886025
     2 OT DIIS     0.15E+00    0.2     0.00113973      -145.7741590880 -1.44E-02
  Decoupling Energy:                                               0.0720521418
  Recoupling Energy:                                              -0.0185881543
     3 OT DIIS     0.15E+00    0.2     0.00045789      -145.7763509169 -2.19E-03
  Decoupling Energy:                                               0.0720925489
  Recoupling Energy:                                              -0.0185887760
     4 OT DIIS     0.15E+00    0.2     0.00020009      -145.7765760619 -2.25E-04
  Decoupling Energy:                                               0.0720721892
  Recoupling Energy:                                              -0.0185883144
     5 OT DIIS     0.15E+00    0.2     0.00005200      -145.7766069851 -3.09E-05
  Decoupling Energy:                                               0.0720753159
  Recoupling Energy:                                              -0.0185883819
     6 OT DIIS     0.15E+00    0.2     0.00001695      -145.7766099119 -2.93E-06
  Decoupling Energy:                                               0.0720747061
  Recoupling Energy:                                              -0.0185883183
     7 OT DIIS     0.15E+00    0.2     0.00000694      -145.7766101726 -2.61E-07
  Decoupling Energy:                                               0.0720750356
  Recoupling Energy:                                              -0.0185883526
     8 OT DIIS     0.15E+00    0.2     0.00000310      -145.7766102224 -4.98E-08
  Decoupling Energy:                                               0.0720749411
  Recoupling Energy:                                              -0.0185883367
     9 OT DIIS     0.15E+00    0.2     0.00000104      -145.7766102298 -7.39E-09
  Decoupling Energy:                                               0.0720749523
  Recoupling Energy:                                              -0.0185883410
    10 OT DIIS     0.15E+00    0.2     0.00000025      -145.7766102312 -1.36E-09

  *** SCF run converged in    10 steps ***


  Electronic density on regular grids:        -94.0000354751       -0.0000354751
  Core density on regular grids:               94.9999999999       -0.0000000001
  Total charge density on r-space grids:        0.9999645248
  Total charge density g-space grids:           0.9999645248

  Overlap energy of the core charge distribution:               0.00001384535225
  Self energy of the core charge distribution:               -359.57183942644110
  Core Hamiltonian energy:                                    110.91279372400621
  Hartree energy:                                             145.46172652625398
  Exchange-correlation energy:                                -35.16776761178894
  Hartree-Fock Exchange energy:                                -7.85422445269349
  QM/MM Electrostatic energy:                                   0.44268716413056

  Total energy:                                              -145.77661023118051

  outer SCF iter =    1 RMS gradient =   0.25E-06 energy =       -145.7766102312
  outer SCF loop converged in   1 iterations or   10 steps

  Decoupling Energy:                                               0.0720749439
  Recoupling Energy:                                              -0.0185883401

 ENERGY| Total FORCE_EVAL ( QMMM ) energy [a.u.]:           -142.851145852670584

 MD| ***************************************************************************
 MD| Step number                                                               3
 MD| Time [fs]                                                          3.000000
 MD| Conserved quantity [hartree]                            -0.117148579773E+03
 MD| ---------------------------------------------------------------------------
 MD|                                          Instantaneous             Averages
 MD| CPU time per MD step [s]                      8.883394            14.297150
 MD| Energy drift per atom [K]          -0.928472371150E+02  -0.102959703125E+03
 MD| Potential energy [hartree]         -0.142851145853E+03  -0.148423093316E+03
 MD| Total kinetic energy [hartree]      0.257025660799E+02   0.281548352854E+02
 MD| QM kinetic energy [hartree]         0.353221603636E+00   0.285042458465E+00
 MD| Total temperature [K]                       753.070634           824.920733
 MD| QM temperature [K]                         2187.027991          1764.885921
 MD| ***************************************************************************

  Translating the system in order to center the QM fragment in the QM box.

 Number of electrons:                                                         94
 Number of occupied orbitals:                                                 47
 Number of molecular orbitals:                                                47

 Number of orbital functions:                                                332
 Number of independent orbital functions:                                    332

 Extrapolation method: ASPC


 SCF WAVEFUNCTION OPTIMIZATION

  ----------------------------------- OT ---------------------------------------
  Minimizer      : DIIS                : direct inversion
                                         in the iterative subspace
                                         using   7 DIIS vectors
                                         safer DIIS on
  Preconditioner : FULL_ALL            : diagonalization, state selective
  Precond_solver : DEFAULT
  stepsize       :    0.15000000                  energy_gap     :    0.08000000
  eps_taylor     :   0.10000E-15                  max_taylor     :             4
  ----------------------------------- OT ---------------------------------------

  Step     Update method      Time    Convergence         Total energy    Change
  ------------------------------------------------------------------------------
  Decoupling Energy:                                               0.0719166810
  Recoupling Energy:                                              -0.0185801925
     1 OT DIIS     0.15E+00    0.7     0.00284771      -145.4489561609 -1.45E+02
  Decoupling Energy:                                               0.0719341027
  Recoupling Energy:                                              -0.0185827032
     2 OT DIIS     0.15E+00    0.2     0.00112003      -145.4617809753 -1.28E-02
  Decoupling Energy:                                               0.0719152154
  Recoupling Energy:                                              -0.0185801408
     3 OT DIIS     0.15E+00    0.2     0.00040366      -145.4640685342 -2.29E-03
  Decoupling Energy:                                               0.0719414254
  Recoupling Energy:                                              -0.0185828672
     4 OT DIIS     0.15E+00    0.2     0.00016977      -145.4641992754 -1.31E-04
  Decoupling Energy:                                               0.0719319627
  Recoupling Energy:                                              -0.0185819461
     5 OT DIIS     0.15E+00    0.2     0.00003892      -145.4642186886 -1.94E-05
  Decoupling Energy:                                               0.0719350545
  Recoupling Energy:                                              -0.0185821527
     6 OT DIIS     0.15E+00    0.2     0.00001344      -145.4642202450 -1.56E-06
  Decoupling Energy:                                               0.0719341404
  Recoupling Energy:                                              -0.0185821318
     7 OT DIIS     0.15E+00    0.2     0.00000553      -145.4642204200 -1.75E-07
  Decoupling Energy:                                               0.0719341744
  Recoupling Energy:                                              -0.0185821254
     8 OT DIIS     0.15E+00    0.2     0.00000195      -145.4642204566 -3.65E-08
  Decoupling Energy:                                               0.0719341606
  Recoupling Energy:                                              -0.0185821283
     9 OT DIIS     0.15E+00    0.2     0.00000075      -145.4642204595 -2.91E-09

  *** SCF run converged in     9 steps ***


  Electronic density on regular grids:        -94.0000858375       -0.0000858375
  Core density on regular grids:               94.9999999999       -0.0000000001
  Total charge density on r-space grids:        0.9999141624
  Total charge density g-space grids:           0.9999141624

  Overlap energy of the core charge distribution:               0.00001232622092
  Self energy of the core charge distribution:               -359.57183942644110
  Core Hamiltonian energy:                                    110.82272082824653
  Hartree energy:                                             145.53168797947887
  Exchange-correlation energy:                                -35.13949424627036
  Hartree-Fock Exchange energy:                                -7.84526963623213
  QM/MM Electrostatic energy:                                   0.73796171553584

  Total energy:                                              -145.46422045946142

  outer SCF iter =    1 RMS gradient =   0.75E-06 energy =       -145.4642204595
  outer SCF loop converged in   1 iterations or    9 steps

  Decoupling Energy:                                               0.0719342010
  Recoupling Energy:                                              -0.0185821285

 ENERGY| Total FORCE_EVAL ( QMMM ) energy [a.u.]:           -170.764646877703910

 MD| ***************************************************************************
 MD| Step number                                                               4
 MD| Time [fs]                                                          4.000000
 MD| Conserved quantity [hartree]                            -0.125036071021E+03
 MD| ---------------------------------------------------------------------------
 MD|                                          Instantaneous             Averages
 MD| CPU time per MD step [s]                      8.600409            12.872965
 MD| Energy drift per atom [K]          -0.439447539321E+03  -0.187081662174E+03
 MD| Potential energy [hartree]         -0.170764646878E+03  -0.154008481706E+03
 MD| Total kinetic energy [hartree]      0.457285758570E+02   0.325482704283E+02
 MD| QM kinetic energy [hartree]         0.371933102858E+00   0.306765119564E+00
 MD| Total temperature [K]                      1339.821382           953.645895
 MD| QM temperature [K]                         2302.883227          1899.385247
 MD| ***************************************************************************

  Translating the system in order to center the QM fragment in the QM box.

 Number of electrons:                                                         94
 Number of occupied orbitals:                                                 47
 Number of molecular orbitals:                                                47

 Number of orbital functions:                                                332
 Number of independent orbital functions:                                    332

 Extrapolation method: ASPC


 SCF WAVEFUNCTION OPTIMIZATION

  ----------------------------------- OT ---------------------------------------
  Minimizer      : DIIS                : direct inversion
                                         in the iterative subspace
                                         using   7 DIIS vectors
                                         safer DIIS on
  Preconditioner : FULL_ALL            : diagonalization, state selective
  Precond_solver : DEFAULT
  stepsize       :    0.15000000                  energy_gap     :    0.08000000
  eps_taylor     :   0.10000E-15                  max_taylor     :             4
  ----------------------------------- OT ---------------------------------------

  Step     Update method      Time    Convergence         Total energy    Change
  ------------------------------------------------------------------------------
  Decoupling Energy:                                               0.0718870553
  Recoupling Energy:                                              -0.0185808023
     1 OT DIIS     0.15E+00    0.7     0.00179352      -145.1186014234 -1.45E+02
  Decoupling Energy:                                               0.0717674361
  Recoupling Energy:                                              -0.0185750186
     2 OT DIIS     0.15E+00    0.2     0.00078139      -145.1236673953 -5.07E-03
  Decoupling Energy:                                               0.0718658731
  Recoupling Energy:                                              -0.0185809423
     3 OT DIIS     0.15E+00    0.2     0.00057015      -145.1245230248 -8.56E-04
  Decoupling Energy:                                               0.0718048353
  Recoupling Energy:                                              -0.0185774573
     4 OT DIIS     0.15E+00    0.2     0.00008183      -145.1247432878 -2.20E-04
  Decoupling Energy:                                               0.0718044275
  Recoupling Energy:                                              -0.0185776312
     5 OT DIIS     0.15E+00    0.2     0.00002399      -145.1247486633 -5.38E-06
  Decoupling Energy:                                               0.0718053596
  Recoupling Energy:                                              -0.0185776154
     6 OT DIIS     0.15E+00    0.2     0.00001003      -145.1247492458 -5.82E-07
  Decoupling Energy:                                               0.0718051186
  Recoupling Energy:                                              -0.0185776261
     7 OT DIIS     0.15E+00    0.2     0.00000264      -145.1247493523 -1.07E-07
  Decoupling Energy:                                               0.0718053302
  Recoupling Energy:                                              -0.0185776361
     8 OT DIIS     0.15E+00    0.2     0.00000094      -145.1247493624 -1.02E-08

  *** SCF run converged in     8 steps ***


  Electronic density on regular grids:        -94.0000966146       -0.0000966146
  Core density on regular grids:               94.9999999999       -0.0000000001
  Total charge density on r-space grids:        0.9999033854
  Total charge density g-space grids:           0.9999033854

  Overlap energy of the core charge distribution:               0.00001160993314
  Self energy of the core charge distribution:               -359.57183942644110
  Core Hamiltonian energy:                                    110.74781206527150
  Hartree energy:                                             145.60463423250241
  Exchange-correlation energy:                                -35.10785426757963
  Hartree-Fock Exchange energy:                                -7.83480002796272
  QM/MM Electrostatic energy:                                   1.03728645182839

  Total energy:                                              -145.12474936244803

  outer SCF iter =    1 RMS gradient =   0.94E-06 energy =       -145.1247493624
  outer SCF loop converged in   1 iterations or    8 steps

  Decoupling Energy:                                               0.0718052521
  Recoupling Energy:                                              -0.0185776305

 ENERGY| Total FORCE_EVAL ( QMMM ) energy [a.u.]:           -144.454217153752097

 MD| ***************************************************************************
 MD| Step number                                                               5
 MD| Time [fs]                                                          5.000000
 MD| Conserved quantity [hartree]                                            NaN
 MD| ---------------------------------------------------------------------------
 MD|                                          Instantaneous             Averages
 MD| CPU time per MD step [s]                      8.390804            11.976533
 MD| Energy drift per atom [K]                          NaN                  NaN
 MD| Potential energy [hartree]         -0.144454217154E+03  -0.152097628796E+03
 MD| Total kinetic energy [hartree]                     NaN                  NaN
 MD| QM kinetic energy [hartree]                        NaN                  NaN
 MD| Total temperature [K]                              NaN                  NaN
 MD| QM temperature [K]                                 NaN                  NaN
 MD| ***************************************************************************

  Translating the system in order to center the QM fragment in the QM box.

 *******************************************************************************
 *   ___                                                                       *
 *  /   \                                                                      *
 * [ABORT]                                                                     *
 *  \___/                             CPASSERT failed                          *
 *    |                                                                        *
 *  O/|                                                                        *
 * /| |                                                                        *
 * / \                                            pw_env/cp_spline_utils.F:210 *
 *******************************************************************************


 ===== Routine Calling Stack ===== 

            7 pw_prolongate_s3
            6 qmmm_elec_with_gaussian:spline3Int
            5 qmmm_elec_with_gaussian
            4 qmmm_el_coupling
            3 velocity_verlet
            2 qs_mol_dyn_low
            1 CP2K
