 DBCSR| CPU Multiplication driver                                           BLAS
 DBCSR| Multrec recursion limit                                              512
 DBCSR| Multiplication stack size                                           1000
 DBCSR| Maximum elements for images                                    UNLIMITED
 DBCSR| Multiplicative factor virtual images                                   1
 DBCSR| Use multiplication densification                                       T
 DBCSR| Multiplication size stacks                                             3
 DBCSR| Use memory pool for CPU allocation                                     F
 DBCSR| Number of 3D layers                                               SINGLE
 DBCSR| Use MPI memory allocation                                              F
 DBCSR| Use RMA algorithm                                                      F
 DBCSR| Use Communication thread                                               T
 DBCSR| Communication thread load                                             75
 DBCSR| MPI: My node id                                                        0
 DBCSR| MPI: Number of nodes                                                  64
 DBCSR| OMP: Current number of threads                                         4
 DBCSR| OMP: Max number of threads                                             4
 DBCSR| Split modifier for TAS multiplication algorithm                  1.0E+00


  **** **** ******  **  PROGRAM STARTED AT               2021-09-01 11:32:31.408
 ***** ** ***  *** **   PROGRAM STARTED ON                             nid001927
 **    ****   ******    PROGRAM STARTED BY                                 hjbio
 ***** **    ** ** **   PROGRAM PROCESS ID                                 31351
  **** **  *******  **  PROGRAM STARTED IN /lus/cls01095/work/d118/d118/hjbio/qm
                                           mm-benchmarking/archer2/CPU/cp2kMD/CB
                                           D_PHY-PBE0/6STEPS/2NODES/128CPN/4THRE
                                           ADS

 CP2K| version string:                                          CP2K version 8.2
 CP2K| source code revision number:                                  git:310b7ab
 CP2K| cp2kflags: omp libint fftw3 libxc elpa parallel mpi3 scalapack plumed2   
 CP2K| is freely available from                            https://www.cp2k.org/
 CP2K| Program compiled at                          Thu 10 Jun 17:43:51 BST 2021
 CP2K| Program compiled on                                                 uan01
 CP2K| Program compiled for                                              ARCHER2
 CP2K| Data directory path              /work/d118/d118/hjbio/CP2K/cp2k-8.2/data
 CP2K| Input file name                                          CBD_PHY-cp2k.inp

 GLOBAL| Force Environment number                                              1
 GLOBAL| Basis set file name                                           HFX_BASIS
 GLOBAL| Potential file name                                           POTENTIAL
 GLOBAL| MM Potential file name                                     MM_POTENTIAL
 GLOBAL| Coordinate file name                                        CBD_PHY.pdb
 GLOBAL| Method name                                                        CP2K
 GLOBAL| Project name                                               CBD_PHY-PBE0
 GLOBAL| Run type                                                             MD
 GLOBAL| FFT library                                                       FFTW3
 GLOBAL| Diagonalization library                                            ELPA
 GLOBAL| Minimum number of eigenvectors for ELPA usage                        16
 GLOBAL| Orthonormality check for eigenvectors                          DISABLED
 GLOBAL| Matrix multiplication library                                    SCALAP
 GLOBAL| All-to-all communication in single precision                          F
 GLOBAL| FFTs using library dependent lengths                                  F
 GLOBAL| Grid backend                                                       AUTO
 GLOBAL| Global print level                                                  LOW
 GLOBAL| MPI I/O enabled                                                       T
 GLOBAL| Total number of message passing processes                            64
 GLOBAL| Number of threads for this process                                    4
 GLOBAL| This output is from process                                           0
 GLOBAL| CPU model name                          AMD EPYC 7742 64-Core Processor
 GLOBAL| CPUID                                                              1002

 MEMORY| system memory details [Kb]
 MEMORY|                        rank 0           min           max       average
 MEMORY| MemTotal            263568576     263568576     263568576     263568576
 MEMORY| MemFree             227499832     227499832     244151700     235825766
 MEMORY| Buffers                349136        120932        349136        235034
 MEMORY| Cached               21993244       8160868      21993244      15077056
 MEMORY| Slab                  4277544       2385732       4277544       3331638
 MEMORY| SReclaimable           351188        203228        351188        277208
 MEMORY| MemLikelyFree       250193400     250193400     252636728     251415064



                      ************* ******** ***********   
                     ************* **********************  
                     ****     **** ****      ***********   
                     ******** ****  *******     ****       
                     *******  ****   *******   ****        
                     ****     ****       ****  ****        
                     ****     **** **********  ****        
                      ****     **** ********    ****       
                     FRONTIERS IN SIMULATION TECHNOLOGY    
                                                           
                        C.J. Mundy, S. Balasubramanian,    
                     Ken Bagchi, J. Hutter, Ari Seitsonen  
                      IFW Kuo, T. Laino, J. VandeVondele   
                                 Version 1.0               

                                                           


 EWALD| Summation is done by:                                               SPME
 EWALD| Alpha parameter [       ANGSTROM^-1]                              0.4000
 EWALD| Real Space Cutoff [          ANGSTROM]                            8.4348
 EWALD| G-space max. Miller index                         80        80        80
 EWALD| Spline interpolation order                                             6

 FORCEFIELD| WARNING: A non Critical ForceField parameter is missing! CP2K GOES!
 FORCEFIELD| Non critical parameters are:Urey-Bradley,Torsions,Impropers, Opbends and 1-4
 FORCEFIELD| All missing parameters will not contribute to the potential energy!
 FORCEFIELD| Activate the print key FF_INFO to have a list of missing parameters

 CHARGE_INFO| Total Charge of the Classical System:                    -0.825808

 SPLINE_INFO| Generating 101926 splines for NONBONDED14 interactions 
              Due to 451 different atomic kinds
  ...10192  ...20384  ...30576  ...40768  ...50960  ...61152  ...71344  ...81536  ...91728  ...101920
 SPLINE_INFO| Number of unique splines computed:            301
 SPLINE_INFO| Done

 SPLINE_INFO| Generating 101926 splines for NONBONDED interactions 
              Due to 451 different atomic kinds
  ...10192  ...20384  ...30576  ...40768  ...50960  ...61152  ...71344  ...81536  ...91728  ...101920
 SPLINE_INFO| Number of unique splines computed:            301
 SPLINE_INFO| Done

 *******************************************************************************
 *******************************************************************************
 **                                                                           **
 **     #####                         ##              ##                      **
 **    ##   ##            ##          ##              ##                      **
 **   ##     ##                       ##            ######                    **
 **   ##     ##  ##   ##  ##   #####  ##  ##   ####   ##    #####    #####    **
 **   ##     ##  ##   ##  ##  ##      ## ##   ##      ##   ##   ##  ##   ##   **
 **   ##  ## ##  ##   ##  ##  ##      ####     ###    ##   ######   ######    **
 **    ##  ###   ##   ##  ##  ##      ## ##      ##   ##   ##       ##        **
 **     #######   #####   ##   #####  ##  ##  ####    ##    #####   ##        **
 **           ##                                                    ##        **
 **                                                                           **
 **                                                ... make the atoms dance   **
 **                                                                           **
 **            Copyright (C) by CP2K developers group (2000-2021)             **
 **                      J. Chem. Phys. 152, 194103 (2020)                    **
 **                                                                           **
 *******************************************************************************


 TOTAL NUMBERS AND MAXIMUM NUMBERS

  Total number of            - Atomic kinds:                                   5
                             - Atoms:                                         68
                             - Shell sets:                                   340
                             - Shells:                                       445
                             - Primitive Cartesian functions:                476
                             - Cartesian basis functions:                   1137
                             - Spherical basis functions:                   1067

  Maximum angular momentum of- Orbital basis functions:                        2
                             - Local part of the GTH pseudopotential:          2
                             - Non-local part of the GTH pseudopotential:      0


 SCF PARAMETERS         Density guess:                                   RESTART
                        --------------------------------------------------------
                        max_scf:                                              30
                        max_scf_history:                                       0
                        max_diis:                                              4
                        --------------------------------------------------------
                        eps_scf:                                        1.00E-06
                        eps_scf_history:                                0.00E+00
                        eps_diis:                                       1.00E-01
                        eps_eigval:                                     1.00E-05
                        --------------------------------------------------------
                        level_shift [a.u.]:                                 0.00
                        --------------------------------------------------------
                        Outer loop SCF in use 
                        No variables optimised in outer loop
                        eps_scf                                         1.00E-06
                        max_scf                                               20
                        No outer loop optimization
                        step_size                                       5.00E-01

 *******************************************************************************
 *******************************************************************************
 **                                                                           **
 **             #######  ##     ## ##     ## ##     ##                        **
 **            ##     ## ###   ### ###   ### ###   ###                        **
 **            ##     ## #### #### #### #### #### ####                        **
 **            ##     ## ## ### ## ## ### ## ## ### ##                        **
 **            ##  ## ## ##     ## ##     ## ##     ##                        **
 **            ##    ##  ##     ## ##     ## ##     ##  T.Laino and F.Mohamed **
 **             ##### ## ##     ## ##     ## ##     ##  2005 - 2015           **
 **                                                                           **
 **                                                     Calculation Started.. **
 *******************************************************************************
 *******************************************************************************

 MD_PAR| Molecular dynamics protocol (MD input parameters)
 MD_PAR| Ensemble type                                                       NVE
 MD_PAR| Number of time steps                                                  6
 MD_PAR| Time step [fs]                                                 1.000000
 MD_PAR| Temperature [K]                                              300.000000
 MD_PAR| Temperature tolerance [K]                                      0.000000
 MD_PAR| Print MD information every                                    1 step(s)
 MD_PAR| File type   Print frequency [steps]                          File names
 MD_PAR| Coordinates          1                           CBD_PHY-PBE0-pos-1.xyz
 MD_PAR| Velocities           1                           CBD_PHY-PBE0-vel-1.xyz
 MD_PAR| Energies             1                              CBD_PHY-PBE0-1.ener
 MD_PAR| Dump                20                           CBD_PHY-PBE0-1.restart

 ROT| Rotational analysis information
 ROT| Principal axes and moments of inertia [a.u.]
 ROT|                           1                   2                   3
 ROT| Eigenvalues      1.56283164001E+13   1.56407408488E+13   1.56663418804E+13
 ROT|      x              0.901637047331     -0.018153263569      0.432112362589
 ROT|      y              0.323714777231      0.690893927917     -0.646431994388
 ROT|      z             -0.286808957117      0.722728191915      0.628812040859
 ROT| Number of rotovibrational vectors                                        6

 DOF| Calculation of degrees of freedom
 DOF| Number of atoms                                                     167923
 DOF| Number of intramolecular constraints                                     0
 DOF| Number of intermolecular constraints                                     0
 DOF| Invariants (translations + rotations)                                    3
 DOF| Degrees of freedom                                                  503766

 DOF| Restraints information
 DOF| Number of intramolecular restraints                                      0
 DOF| Number of intermolecular restraints                                      0

 MD_VEL| Velocities initialization
 MD_VEL| Initial temperature [K]                                      300.000000
 MD_VEL| COM velocity            -0.0000000000     0.0000000000     0.0000000000

  Translating the system in order to center the QM fragment in the QM box.

 Number of electrons:                                                        180
 Number of occupied orbitals:                                                 90
 Number of molecular orbitals:                                                90

 Number of orbital functions:                                               1067
 Number of independent orbital functions:                                   1067

 Extrapolation method: initial_guess


 SCF WAVEFUNCTION OPTIMIZATION

  ----------------------------------- OT ---------------------------------------
  Minimizer      : DIIS                : direct inversion
                                         in the iterative subspace
                                         using   7 DIIS vectors
                                         safer DIIS on
  Preconditioner : FULL_ALL            : diagonalization, state selective
  Precond_solver : DEFAULT
  stepsize       :    0.15000000                  energy_gap     :    0.08000000
  eps_taylor     :   0.10000E-15                  max_taylor     :             4
  ----------------------------------- OT ---------------------------------------

  Step     Update method      Time    Convergence         Total energy    Change
  ------------------------------------------------------------------------------
  Decoupling Energy:                                               0.0370647021
  Recoupling Energy:                                              -0.0063741479
     1 OT DIIS     0.15E+00    6.7     0.00129057      -255.9257316521 -2.56E+02
  Decoupling Energy:                                               0.0370576004
  Recoupling Energy:                                              -0.0063740314
     2 OT DIIS     0.15E+00    1.0     0.00057761      -255.9419521977 -1.62E-02
  Decoupling Energy:                                               0.0369596417
  Recoupling Energy:                                              -0.0063730135
     3 OT DIIS     0.15E+00    1.0     0.00038348      -255.9451217318 -3.17E-03
  Decoupling Energy:                                               0.0369795470
  Recoupling Energy:                                              -0.0063732416
     4 OT DIIS     0.15E+00    1.0     0.00009866      -255.9458275768 -7.06E-04
  Decoupling Energy:                                               0.0369716948
  Recoupling Energy:                                              -0.0063731487
     5 OT DIIS     0.15E+00    1.0     0.00003992      -255.9458779686 -5.04E-05
  Decoupling Energy:                                               0.0369737640
  Recoupling Energy:                                              -0.0063731649
     6 OT DIIS     0.15E+00    1.0     0.00001793      -255.9458894170 -1.14E-05
  Decoupling Energy:                                               0.0369741808
  Recoupling Energy:                                              -0.0063731680
     7 OT DIIS     0.15E+00    1.0     0.00000621      -255.9458922938 -2.88E-06
  Decoupling Energy:                                               0.0369727127
  Recoupling Energy:                                              -0.0063731518
     8 OT DIIS     0.15E+00    1.0     0.00000242      -255.9458926328 -3.39E-07
  Decoupling Energy:                                               0.0369731061
  Recoupling Energy:                                              -0.0063731556
     9 OT DIIS     0.15E+00    1.0     0.00000111      -255.9458926822 -4.94E-08
  Decoupling Energy:                                               0.0369728228
  Recoupling Energy:                                              -0.0063731526
    10 OT DIIS     0.15E+00    1.0     0.00000048      -255.9458926924 -1.02E-08

  *** SCF run converged in    10 steps ***


  Electronic density on regular grids:       -179.9999999999        0.0000000001
  Core density on regular grids:              180.9999999999       -0.0000000001
  Total charge density on r-space grids:        1.0000000000
  Total charge density g-space grids:           1.0000000000

  Overlap energy of the core charge distribution:               0.00001951532734
  Self energy of the core charge distribution:               -615.71576003586028
  Core Hamiltonian energy:                                    191.01363220817899
  Hartree energy:                                             248.20663869015743
  Exchange-correlation energy:                                -61.38430761263389
  Hartree-Fock Exchange energy:                               -18.10821018492835
  QM/MM Electrostatic energy:                                   0.04209472735323

  Total energy:                                              -255.94589269240549

  outer SCF iter =    1 RMS gradient =   0.48E-06 energy =       -255.9458926924
  outer SCF loop converged in   1 iterations or   10 steps

  Decoupling Energy:                                               0.0369728028
  Recoupling Energy:                                              -0.0063731523

 ENERGY| Total FORCE_EVAL ( QMMM ) energy [a.u.]:          -1088.110859624498289

 MD_INI| MD initialization
 MD_INI| Potential energy [hartree]                          -0.108811085962E+04
 MD_INI| Total kinetic energy [hartree]                       0.239300084734E+03
 MD_INI| QM kinetic energy [hartree]                          0.106639360339E+00
 MD_INI| Total temperature [K]                                        300.000000
 MD_INI| QM temperature [K]                                           330.137318
 MD_INI| Cell volume [bohr^3]                                 1.137316355424E+07
 MD_INI| Cell volume [ang^3]                                  1.685328937712E+06
 MD_INI| Cell lengths [bohr]      2.24884969E+02  2.24884969E+02  2.24884969E+02
 MD_INI| Cell lengths [ang]       1.19004000E+02  1.19004000E+02  1.19004000E+02
 MD_INI| Cell angles [deg]        9.00000000E+01  9.00000000E+01  9.00000000E+01

  Translating the system in order to center the QM fragment in the QM box.

 Number of electrons:                                                        180
 Number of occupied orbitals:                                                 90
 Number of molecular orbitals:                                                90

 Number of orbital functions:                                               1067
 Number of independent orbital functions:                                   1067

 Extrapolation method: ASPC


 SCF WAVEFUNCTION OPTIMIZATION

  ----------------------------------- OT ---------------------------------------
  Minimizer      : DIIS                : direct inversion
                                         in the iterative subspace
                                         using   7 DIIS vectors
                                         safer DIIS on
  Preconditioner : FULL_ALL            : diagonalization, state selective
  Precond_solver : DEFAULT
  stepsize       :    0.15000000                  energy_gap     :    0.08000000
  eps_taylor     :   0.10000E-15                  max_taylor     :             4
  ----------------------------------- OT ---------------------------------------

  Step     Update method      Time    Convergence         Total energy    Change
  ------------------------------------------------------------------------------
  Decoupling Energy:                                               0.0370014667
  Recoupling Energy:                                              -0.0063734172
     1 OT DIIS     0.15E+00    4.5     0.00075899      -255.7182133817 -2.56E+02
  Decoupling Energy:                                               0.0370082386
  Recoupling Energy:                                              -0.0063735355
     2 OT DIIS     0.15E+00    1.0     0.00032685      -255.7237312607 -5.52E-03
  Decoupling Energy:                                               0.0370087411
  Recoupling Energy:                                              -0.0063735590
     3 OT DIIS     0.15E+00    1.0     0.00019068      -255.7247685915 -1.04E-03
  Decoupling Energy:                                               0.0370199882
  Recoupling Energy:                                              -0.0063736817
     4 OT DIIS     0.15E+00    1.0     0.00006054      -255.7249610286 -1.92E-04
  Decoupling Energy:                                               0.0370216763
  Recoupling Energy:                                              -0.0063737045
     5 OT DIIS     0.15E+00    1.0     0.00001954      -255.7249775933 -1.66E-05
  Decoupling Energy:                                               0.0370210005
  Recoupling Energy:                                              -0.0063736984
     6 OT DIIS     0.15E+00    1.0     0.00000817      -255.7249798517 -2.26E-06
  Decoupling Energy:                                               0.0370221929
  Recoupling Energy:                                              -0.0063737124
     7 OT DIIS     0.15E+00    1.0     0.00000308      -255.7249803137 -4.62E-07
  Decoupling Energy:                                               0.0370222382
  Recoupling Energy:                                              -0.0063737132
     8 OT DIIS     0.15E+00    1.0     0.00000136      -255.7249803910 -7.72E-08
  Decoupling Energy:                                               0.0370224658
  Recoupling Energy:                                              -0.0063737159
     9 OT DIIS     0.15E+00    1.0     0.00000058      -255.7249804067 -1.57E-08

  *** SCF run converged in     9 steps ***


  Electronic density on regular grids:       -180.0000000000        0.0000000000
  Core density on regular grids:              180.9999999999       -0.0000000001
  Total charge density on r-space grids:        0.9999999999
  Total charge density g-space grids:           0.9999999999

  Overlap energy of the core charge distribution:               0.00002422739645
  Self energy of the core charge distribution:               -615.71576003586028
  Core Hamiltonian energy:                                    191.21094981598020
  Hartree energy:                                             248.07774825198351
  Exchange-correlation energy:                                -61.42683491960645
  Hartree-Fock Exchange energy:                               -18.12283148686009
  QM/MM Electrostatic energy:                                   0.25172374027100

  Total energy:                                              -255.72498040669566

  outer SCF iter =    1 RMS gradient =   0.58E-06 energy =       -255.7249804067
  outer SCF loop converged in   1 iterations or    9 steps

  Decoupling Energy:                                               0.0370224944
  Recoupling Energy:                                              -0.0063737164

 ENERGY| Total FORCE_EVAL ( QMMM ) energy [a.u.]:          -1059.962356576320872

 MD| ***************************************************************************
 MD| Step number                                                               1
 MD| Time [fs]                                                          1.000000
 MD| Conserved quantity [hartree]                            -0.841461427168E+03
 MD| ---------------------------------------------------------------------------
 MD|                                          Instantaneous             Averages
 MD| CPU time per MD step [s]                     88.292503            88.292503
 MD| Energy drift per atom [K]           0.138202490991E+02   0.000000000000E+00
 MD| Potential energy [hartree]         -0.105996235658E+04  -0.105996235658E+04
 MD| Total kinetic energy [hartree]      0.218500929409E+03   0.218500929409E+03
 MD| QM kinetic energy [hartree]         0.121347283651E+00   0.121347283651E+00
 MD| Total temperature [K]                       273.925013           273.925013
 MD| QM temperature [K]                          375.670547           375.670547
 MD| ***************************************************************************

  Translating the system in order to center the QM fragment in the QM box.

 Number of electrons:                                                        180
 Number of occupied orbitals:                                                 90
 Number of molecular orbitals:                                                90

 Number of orbital functions:                                               1067
 Number of independent orbital functions:                                   1067

 Extrapolation method: ASPC


 SCF WAVEFUNCTION OPTIMIZATION

  ----------------------------------- OT ---------------------------------------
  Minimizer      : DIIS                : direct inversion
                                         in the iterative subspace
                                         using   7 DIIS vectors
                                         safer DIIS on
  Preconditioner : FULL_ALL            : diagonalization, state selective
  Precond_solver : DEFAULT
  stepsize       :    0.15000000                  energy_gap     :    0.08000000
  eps_taylor     :   0.10000E-15                  max_taylor     :             4
  ----------------------------------- OT ---------------------------------------

  Step     Update method      Time    Convergence         Total energy    Change
  ------------------------------------------------------------------------------
  Decoupling Energy:                                               0.0370781910
  Recoupling Energy:                                              -0.0063743357
     1 OT DIIS     0.15E+00    4.4     0.00029256      -255.3622521853 -2.55E+02
  Decoupling Energy:                                               0.0370714447
  Recoupling Energy:                                              -0.0063742686
     2 OT DIIS     0.15E+00    1.0     0.00012380      -255.3630880126 -8.36E-04
  Decoupling Energy:                                               0.0370747181
  Recoupling Energy:                                              -0.0063743003
     3 OT DIIS     0.15E+00    1.0     0.00005679      -255.3632553431 -1.67E-04
  Decoupling Energy:                                               0.0370720744
  Recoupling Energy:                                              -0.0063742776
     4 OT DIIS     0.15E+00    1.0     0.00001757      -255.3632741379 -1.88E-05
  Decoupling Energy:                                               0.0370725455
  Recoupling Energy:                                              -0.0063742816
     5 OT DIIS     0.15E+00    1.0     0.00000682      -255.3632756651 -1.53E-06
  Decoupling Energy:                                               0.0370729626
  Recoupling Energy:                                              -0.0063742866
     6 OT DIIS     0.15E+00    1.0     0.00000313      -255.3632759228 -2.58E-07
  Decoupling Energy:                                               0.0370729474
  Recoupling Energy:                                              -0.0063742865
     7 OT DIIS     0.15E+00    1.0     0.00000106      -255.3632759838 -6.10E-08
  Decoupling Energy:                                               0.0370730053
  Recoupling Energy:                                              -0.0063742872
     8 OT DIIS     0.15E+00    1.0     0.00000048      -255.3632759939 -1.02E-08

  *** SCF run converged in     8 steps ***


  Electronic density on regular grids:       -180.0000000000       -0.0000000000
  Core density on regular grids:              180.9999999999       -0.0000000001
  Total charge density on r-space grids:        0.9999999998
  Total charge density g-space grids:           0.9999999998

  Overlap energy of the core charge distribution:               0.00005088941256
  Self energy of the core charge distribution:               -615.71576003586028
  Core Hamiltonian energy:                                    191.44418406743944
  Hartree energy:                                             247.94136885807939
  Exchange-correlation energy:                                -61.47332456061983
  Hartree-Fock Exchange energy:                               -18.13880656643720
  QM/MM Electrostatic energy:                                   0.57901135403735

  Total energy:                                              -255.36327599394855

  outer SCF iter =    1 RMS gradient =   0.48E-06 energy =       -255.3632759939
  outer SCF loop converged in   1 iterations or    8 steps

  Decoupling Energy:                                               0.0370730220
  Recoupling Energy:                                              -0.0063742875

 ENERGY| Total FORCE_EVAL ( QMMM ) energy [a.u.]:          -1061.235329358956051

 MD| ***************************************************************************
 MD| Step number                                                               2
 MD| Time [fs]                                                          2.000000
 MD| Conserved quantity [hartree]                            -0.842817774815E+03
 MD| ---------------------------------------------------------------------------
 MD|                                          Instantaneous             Averages
 MD| CPU time per MD step [s]                     40.267537            64.280020
 MD| Energy drift per atom [K]           0.112696741288E+02   0.563483706440E+01
 MD| Potential energy [hartree]         -0.106123532936E+04  -0.106059884297E+04
 MD| Total kinetic energy [hartree]      0.218417554544E+03   0.218459241976E+03
 MD| QM kinetic energy [hartree]         0.111578021270E+00   0.116462652461E+00
 MD| Total temperature [K]                       273.820490           273.872751
 MD| QM temperature [K]                          345.426572           360.548560
 MD| ***************************************************************************

  Translating the system in order to center the QM fragment in the QM box.

 Number of electrons:                                                        180
 Number of occupied orbitals:                                                 90
 Number of molecular orbitals:                                                90

 Number of orbital functions:                                               1067
 Number of independent orbital functions:                                   1067

 Extrapolation method: ASPC


 SCF WAVEFUNCTION OPTIMIZATION

  ----------------------------------- OT ---------------------------------------
  Minimizer      : DIIS                : direct inversion
                                         in the iterative subspace
                                         using   7 DIIS vectors
                                         safer DIIS on
  Preconditioner : FULL_ALL            : diagonalization, state selective
  Precond_solver : DEFAULT
  stepsize       :    0.15000000                  energy_gap     :    0.08000000
  eps_taylor     :   0.10000E-15                  max_taylor     :             4
  ----------------------------------- OT ---------------------------------------

  Step     Update method      Time    Convergence         Total energy    Change
  ------------------------------------------------------------------------------
  Decoupling Energy:                                               0.0371231410
  Recoupling Energy:                                              -0.0063748340
     1 OT DIIS     0.15E+00    4.4     0.00057316      -254.8840259104 -2.55E+02
  Decoupling Energy:                                               0.0371263850
  Recoupling Energy:                                              -0.0063748788
     2 OT DIIS     0.15E+00    1.0     0.00022569      -254.8871522019 -3.13E-03
  Decoupling Energy:                                               0.0371270894
  Recoupling Energy:                                              -0.0063748846
     3 OT DIIS     0.15E+00    1.0     0.00008234      -254.8877076220 -5.55E-04
  Decoupling Energy:                                               0.0371223304
  Recoupling Energy:                                              -0.0063748373
     4 OT DIIS     0.15E+00    1.0     0.00002752      -254.8877578967 -5.03E-05
  Decoupling Energy:                                               0.0371233237
  Recoupling Energy:                                              -0.0063748479
     5 OT DIIS     0.15E+00    1.0     0.00001036      -254.8877617008 -3.80E-06
  Decoupling Energy:                                               0.0371231640
  Recoupling Energy:                                              -0.0063748451
     6 OT DIIS     0.15E+00    1.0     0.00000440      -254.8877622858 -5.85E-07
  Decoupling Energy:                                               0.0371230857
  Recoupling Energy:                                              -0.0063748447
     7 OT DIIS     0.15E+00    1.0     0.00000136      -254.8877623761 -9.03E-08
  Decoupling Energy:                                               0.0371230885
  Recoupling Energy:                                              -0.0063748447
     8 OT DIIS     0.15E+00    1.0     0.00000059      -254.8877623870 -1.08E-08

  *** SCF run converged in     8 steps ***


  Electronic density on regular grids:       -180.0000000003       -0.0000000003
  Core density on regular grids:              180.9999999999       -0.0000000001
  Total charge density on r-space grids:        0.9999999996
  Total charge density g-space grids:           0.9999999996

  Overlap energy of the core charge distribution:               0.00005124504747
  Self energy of the core charge distribution:               -615.71576003586028
  Core Hamiltonian energy:                                    191.49125333269041
  Hartree energy:                                             247.90728524545409
  Exchange-correlation energy:                                -61.48094614367983
  Hartree-Fock Exchange energy:                               -18.14140184784517
  QM/MM Electrostatic energy:                                   1.05175581723258

  Total energy:                                              -254.88776238696079

  outer SCF iter =    1 RMS gradient =   0.59E-06 energy =       -254.8877623870
  outer SCF loop converged in   1 iterations or    8 steps

  Decoupling Energy:                                               0.0371230880
  Recoupling Energy:                                              -0.0063748447

 ENERGY| Total FORCE_EVAL ( QMMM ) energy [a.u.]:          -1082.045340581864593

 MD| ***************************************************************************
 MD| Step number                                                               3
 MD| Time [fs]                                                          3.000000
 MD| Conserved quantity [hartree]                            -0.846392350369E+03
 MD| ---------------------------------------------------------------------------
 MD|                                          Instantaneous             Averages
 MD| CPU time per MD step [s]                     40.832747            56.464262
 MD| Energy drift per atom [K]           0.454778173124E+01   0.527248528668E+01
 MD| Potential energy [hartree]         -0.108204534058E+04  -0.106774767551E+04
 MD| Total kinetic energy [hartree]      0.235652990212E+03   0.224190491388E+03
 MD| QM kinetic energy [hartree]         0.117356008002E+00   0.116760437641E+00
 MD| Total temperature [K]                       295.427798           281.057767
 MD| QM temperature [K]                          363.314236           361.470452
 MD| ***************************************************************************

  Translating the system in order to center the QM fragment in the QM box.

 Number of electrons:                                                        180
 Number of occupied orbitals:                                                 90
 Number of molecular orbitals:                                                90

 Number of orbital functions:                                               1067
 Number of independent orbital functions:                                   1067

 Extrapolation method: ASPC


 SCF WAVEFUNCTION OPTIMIZATION

  ----------------------------------- OT ---------------------------------------
  Minimizer      : DIIS                : direct inversion
                                         in the iterative subspace
                                         using   7 DIIS vectors
                                         safer DIIS on
  Preconditioner : FULL_ALL            : diagonalization, state selective
  Precond_solver : DEFAULT
  stepsize       :    0.15000000                  energy_gap     :    0.08000000
  eps_taylor     :   0.10000E-15                  max_taylor     :             4
  ----------------------------------- OT ---------------------------------------

  Step     Update method      Time    Convergence         Total energy    Change
  ------------------------------------------------------------------------------
  Decoupling Energy:                                               0.0371654907
  Recoupling Energy:                                              -0.0063753284
     1 OT DIIS     0.15E+00    4.4     0.00026664      -254.3373023493 -2.54E+02
  Decoupling Energy:                                               0.0371742720
  Recoupling Energy:                                              -0.0063754100
     2 OT DIIS     0.15E+00    1.0     0.00010691      -254.3379931339 -6.91E-04
  Decoupling Energy:                                               0.0371691167
  Recoupling Energy:                                              -0.0063753570
     3 OT DIIS     0.15E+00    1.0     0.00003989      -254.3381213801 -1.28E-04
  Decoupling Energy:                                               0.0371714823
  Recoupling Energy:                                              -0.0063753813
     4 OT DIIS     0.15E+00    1.0     0.00001278      -254.3381311927 -9.81E-06
  Decoupling Energy:                                               0.0371702663
  Recoupling Energy:                                              -0.0063753694
     5 OT DIIS     0.15E+00    1.0     0.00000542      -254.3381320382 -8.46E-07
  Decoupling Energy:                                               0.0371705218
  Recoupling Energy:                                              -0.0063753713
     6 OT DIIS     0.15E+00    1.0     0.00000189      -254.3381321775 -1.39E-07
  Decoupling Energy:                                               0.0371705445
  Recoupling Energy:                                              -0.0063753718
     7 OT DIIS     0.15E+00    1.0     0.00000064      -254.3381321961 -1.87E-08

  *** SCF run converged in     7 steps ***


  Electronic density on regular grids:       -179.9999999999        0.0000000001
  Core density on regular grids:              180.9999999999       -0.0000000001
  Total charge density on r-space grids:        1.0000000000
  Total charge density g-space grids:           1.0000000000

  Overlap energy of the core charge distribution:               0.00002358461768
  Self energy of the core charge distribution:               -615.71576003586028
  Core Hamiltonian energy:                                    191.34733460279369
  Hartree energy:                                             247.97608939285033
  Exchange-correlation energy:                                -61.44937090823155
  Hartree-Fock Exchange energy:                               -18.13041920428194
  QM/MM Electrostatic energy:                                   1.63397037197067

  Total energy:                                              -254.33813219614140

  outer SCF iter =    1 RMS gradient =   0.64E-06 energy =       -254.3381321961
  outer SCF loop converged in   1 iterations or    7 steps

  Decoupling Energy:                                               0.0371704710
  Recoupling Energy:                                              -0.0063753710

 ENERGY| Total FORCE_EVAL ( QMMM ) energy [a.u.]:          -1079.714053633536423

 MD| ***************************************************************************
 MD| Step number                                                               4
 MD| Time [fs]                                                          4.000000
 MD| Conserved quantity [hartree]                            -0.842113596944E+03
 MD| ---------------------------------------------------------------------------
 MD|                                          Instantaneous             Averages
 MD| CPU time per MD step [s]                     39.248444            52.160308
 MD| Energy drift per atom [K]           0.125938615200E+02   0.710282934501E+01
 MD| Potential energy [hartree]         -0.107971405363E+04  -0.107073927004E+04
 MD| Total kinetic energy [hartree]      0.237600456690E+03   0.227542982714E+03
 MD| QM kinetic energy [hartree]         0.148328585048E+00   0.124652474493E+00
 MD| Total temperature [K]                       297.869251           285.260638
 MD| QM temperature [K]                          459.200066           385.902855
 MD| ***************************************************************************

  Translating the system in order to center the QM fragment in the QM box.

 Number of electrons:                                                        180
 Number of occupied orbitals:                                                 90
 Number of molecular orbitals:                                                90

 Number of orbital functions:                                               1067
 Number of independent orbital functions:                                   1067

 Extrapolation method: ASPC


 SCF WAVEFUNCTION OPTIMIZATION

  ----------------------------------- OT ---------------------------------------
  Minimizer      : DIIS                : direct inversion
                                         in the iterative subspace
                                         using   7 DIIS vectors
                                         safer DIIS on
  Preconditioner : FULL_ALL            : diagonalization, state selective
  Precond_solver : DEFAULT
  stepsize       :    0.15000000                  energy_gap     :    0.08000000
  eps_taylor     :   0.10000E-15                  max_taylor     :             4
  ----------------------------------- OT ---------------------------------------

  Step     Update method      Time    Convergence         Total energy    Change
  ------------------------------------------------------------------------------
  Decoupling Energy:                                               0.0372101717
  Recoupling Energy:                                              -0.0063758445
     1 OT DIIS     0.15E+00    4.4     0.00032210      -253.7449265734 -2.54E+02
  Decoupling Energy:                                               0.0372072129
  Recoupling Energy:                                              -0.0063758022
     2 OT DIIS     0.15E+00    1.0     0.00013190      -253.7458488272 -9.22E-04
  Decoupling Energy:                                               0.0372093350
  Recoupling Energy:                                              -0.0063758210
     3 OT DIIS     0.15E+00    1.0     0.00006238      -253.7460084352 -1.60E-04
  Decoupling Energy:                                               0.0372088288
  Recoupling Energy:                                              -0.0063758157
     4 OT DIIS     0.15E+00    1.0     0.00002428      -253.7460395963 -3.12E-05
  Decoupling Energy:                                               0.0372096161
  Recoupling Energy:                                              -0.0063758219
     5 OT DIIS     0.15E+00    1.0     0.00000526      -253.7460421112 -2.51E-06
  Decoupling Energy:                                               0.0372093002
  Recoupling Energy:                                              -0.0063758193
     6 OT DIIS     0.15E+00    1.0     0.00000251      -253.7460422554 -1.44E-07
  Decoupling Energy:                                               0.0372093022
  Recoupling Energy:                                              -0.0063758191
     7 OT DIIS     0.15E+00    1.0     0.00000088      -253.7460422875 -3.20E-08

  *** SCF run converged in     7 steps ***


  Electronic density on regular grids:       -180.0000000000       -0.0000000000
  Core density on regular grids:              180.9999999999       -0.0000000001
  Total charge density on r-space grids:        0.9999999998
  Total charge density g-space grids:           0.9999999998

  Overlap energy of the core charge distribution:               0.00001841792980
  Self energy of the core charge distribution:               -615.71576003586028
  Core Hamiltonian energy:                                    191.22476240055869
  Hartree energy:                                             248.04793696548387
  Exchange-correlation energy:                                -61.41799430580150
  Hartree-Fock Exchange energy:                               -18.11952418318453
  QM/MM Electrostatic energy:                                   2.23451845341489

  Total energy:                                              -253.74604228745903

  outer SCF iter =    1 RMS gradient =   0.88E-06 energy =       -253.7460422875
  outer SCF loop converged in   1 iterations or    7 steps

  Decoupling Energy:                                               0.0372093294
  Recoupling Energy:                                              -0.0063758194

 ENERGY| Total FORCE_EVAL ( QMMM ) energy [a.u.]:          -1094.307011446563138

 MD| ***************************************************************************
 MD| Step number                                                               5
 MD| Time [fs]                                                          5.000000
 MD| Conserved quantity [hartree]                            -0.848389415041E+03
 MD| ---------------------------------------------------------------------------
 MD|                                          Instantaneous             Averages
 MD| CPU time per MD step [s]                     39.891025            49.706451
 MD| Energy drift per atom [K]           0.792355770599E+00   0.584073463013E+01
 MD| Potential energy [hartree]         -0.109430701145E+04  -0.107545281832E+04
 MD| Total kinetic energy [hartree]      0.245917596405E+03   0.231217905452E+03
 MD| QM kinetic energy [hartree]         0.157566215213E+00   0.131235222637E+00
 MD| Total temperature [K]                       308.296084           289.867727
 MD| QM temperature [K]                          487.798197           406.281924
 MD| ***************************************************************************

  Translating the system in order to center the QM fragment in the QM box.

 Number of electrons:                                                        180
 Number of occupied orbitals:                                                 90
 Number of molecular orbitals:                                                90

 Number of orbital functions:                                               1067
 Number of independent orbital functions:                                   1067

 Extrapolation method: ASPC


 SCF WAVEFUNCTION OPTIMIZATION

  ----------------------------------- OT ---------------------------------------
  Minimizer      : DIIS                : direct inversion
                                         in the iterative subspace
                                         using   7 DIIS vectors
                                         safer DIIS on
  Preconditioner : FULL_ALL            : diagonalization, state selective
  Precond_solver : DEFAULT
  stepsize       :    0.15000000                  energy_gap     :    0.08000000
  eps_taylor     :   0.10000E-15                  max_taylor     :             4
  ----------------------------------- OT ---------------------------------------

  Step     Update method      Time    Convergence         Total energy    Change
  ------------------------------------------------------------------------------
  Decoupling Energy:                                               0.0372438941
  Recoupling Energy:                                              -0.0063762162
     1 OT DIIS     0.15E+00    4.4     0.00048972      -253.1925162498 -2.53E+02
  Decoupling Energy:                                               0.0372419905
  Recoupling Energy:                                              -0.0063762271
     2 OT DIIS     0.15E+00    1.0     0.00019224      -253.1946656497 -2.15E-03
  Decoupling Energy:                                               0.0372396686
  Recoupling Energy:                                              -0.0063761950
     3 OT DIIS     0.15E+00    1.0     0.00008084      -253.1950229596 -3.57E-04
  Decoupling Energy:                                               0.0372398351
  Recoupling Energy:                                              -0.0063761984
     4 OT DIIS     0.15E+00    1.0     0.00002248      -253.1950819732 -5.90E-05
  Decoupling Energy:                                               0.0372387933
  Recoupling Energy:                                              -0.0063761870
     5 OT DIIS     0.15E+00    1.0     0.00000834      -253.1950845515 -2.58E-06
  Decoupling Energy:                                               0.0372394776
  Recoupling Energy:                                              -0.0063761928
     6 OT DIIS     0.15E+00    1.0     0.00000288      -253.1950849074 -3.56E-07
  Decoupling Energy:                                               0.0372392198
  Recoupling Energy:                                              -0.0063761904
     7 OT DIIS     0.15E+00    1.0     0.00000086      -253.1950849480 -4.06E-08

  *** SCF run converged in     7 steps ***


  Electronic density on regular grids:       -180.0000000000       -0.0000000000
  Core density on regular grids:              180.9999999999       -0.0000000001
  Total charge density on r-space grids:        0.9999999999
  Total charge density g-space grids:           0.9999999999

  Overlap energy of the core charge distribution:               0.00001843303006
  Self energy of the core charge distribution:               -615.71576003586028
  Core Hamiltonian energy:                                    191.21898412279640
  Hartree energy:                                             248.05851001542882
  Exchange-correlation energy:                                -61.40903587932048
  Hartree-Fock Exchange energy:                               -18.11645649987308
  QM/MM Electrostatic energy:                                   2.76865489580545

  Total energy:                                              -253.19508494799314

  outer SCF iter =    1 RMS gradient =   0.86E-06 energy =       -253.1950849480
  outer SCF loop converged in   1 iterations or    7 steps

  Decoupling Energy:                                               0.0372392150
  Recoupling Energy:                                              -0.0063761902

 ENERGY| Total FORCE_EVAL ( QMMM ) energy [a.u.]:          -1057.339964911031984

 MD| ***************************************************************************
 MD| Step number                                                               6
 MD| Time [fs]                                                          6.000000
 MD| Conserved quantity [hartree]                            -0.842900321983E+03
 MD| ---------------------------------------------------------------------------
 MD|                                          Instantaneous             Averages
 MD| CPU time per MD step [s]                     39.299584            47.971973
 MD| Energy drift per atom [K]           0.111144464185E+02   0.671968659486E+01
 MD| Potential energy [hartree]         -0.105733996491E+04  -0.107243400942E+04
 MD| Total kinetic energy [hartree]      0.214439642928E+03   0.228421528365E+03
 MD| QM kinetic energy [hartree]         0.141134578169E+00   0.132885115226E+00
 MD| Total temperature [K]                       268.833557           286.362032
 MD| QM temperature [K]                          436.928644           411.389711
 MD| ***************************************************************************

 -------------------------------------------------------------------------------
 -                                                                             -
 -                                DBCSR STATISTICS                             -
 -                                                                             -
 -------------------------------------------------------------------------------
 COUNTER                                    TOTAL       BLAS       SMM       ACC
 flops     9 x    26 x    26              2810808     100.0%      0.0%      0.0%
 flops     9 x    32 x    32              8515584     100.0%      0.0%      0.0%
 flops    26 x    26 x    26             13709280     100.0%      0.0%      0.0%
 flops    66 x    26 x    26             24984960     100.0%      0.0%      0.0%
 flops    26 x    26 x    32             33745920     100.0%      0.0%      0.0%
 flops    26 x    32 x    26             33745920     100.0%      0.0%      0.0%
 flops    32 x    26 x    26             33745920     100.0%      0.0%      0.0%
 flops    26 x    26 x   128             39975936     100.0%      0.0%      0.0%
 flops    62 x    26 x    26             46941440     100.0%      0.0%      0.0%
 flops    22 x    26 x    26             48928880     100.0%      0.0%      0.0%
 flops    66 x    26 x   128             55351296     100.0%      0.0%      0.0%
 flops    66 x    26 x    32             61501440     100.0%      0.0%      0.0%
 flops    66 x    32 x    26             61501440     100.0%      0.0%      0.0%
 flops    32 x    32 x    26             83066880     100.0%      0.0%      0.0%
 flops    26 x    32 x    32             83066880     100.0%      0.0%      0.0%
 flops    32 x    26 x    32             83066880     100.0%      0.0%      0.0%
 flops    26 x    26 x   137             85573488     100.0%      0.0%      0.0%
 flops    40 x    26 x    26             90854400     100.0%      0.0%      0.0%
 flops    22 x    26 x   128             92252160     100.0%      0.0%      0.0%
 flops    26 x    32 x   128             98402304     100.0%      0.0%      0.0%
 flops    32 x    26 x   128             98402304     100.0%      0.0%      0.0%
 flops    22 x    32 x    26            102502400     100.0%      0.0%      0.0%
 flops    22 x    26 x    32            102502400     100.0%      0.0%      0.0%
 flops    62 x    26 x   128            103993344     100.0%      0.0%      0.0%
 flops    62 x    26 x    32            115548160     100.0%      0.0%      0.0%
 flops    62 x    32 x    26            115548160     100.0%      0.0%      0.0%
 flops    66 x    26 x   137            118486368     100.0%      0.0%      0.0%
 flops    66 x    32 x   128            136249344     100.0%      0.0%      0.0%
 flops    66 x    32 x    32            151388160     100.0%      0.0%      0.0%
 flops     9 x     9 x    26            165405240     100.0%      0.0%      0.0%
 flops    31 x    26 x    26            176030400     100.0%      0.0%      0.0%
 flops    22 x    26 x   137            197477280     100.0%      0.0%      0.0%
 flops    40 x    26 x   128            201277440     100.0%      0.0%      0.0%
 flops    32 x    32 x    32            204472320     100.0%      0.0%      0.0%
 flops    26 x    26 x   133            207687480     100.0%      0.0%      0.0%
 flops    26 x    32 x   137            210642432     100.0%      0.0%      0.0%
 flops    32 x    26 x   137            210642432     100.0%      0.0%      0.0%
 flops    62 x    26 x   137            222610752     100.0%      0.0%      0.0%
 flops    40 x    32 x    26            223641600     100.0%      0.0%      0.0%
 flops    40 x    26 x    32            223641600     100.0%      0.0%      0.0%
 flops    22 x    32 x   128            227082240     100.0%      0.0%      0.0%
 flops    32 x    32 x   128            242221056     100.0%      0.0%      0.0%
 flops    62 x    32 x   128            255983616     100.0%      0.0%      0.0%
 flops    22 x    32 x    32            274391040     100.0%      0.0%      0.0%
 flops    62 x    32 x    32            284426240     100.0%      0.0%      0.0%
 flops    66 x    26 x   133            287567280     100.0%      0.0%      0.0%
 flops    66 x    32 x   137            291658752     100.0%      0.0%      0.0%
 flops    31 x    26 x   128            389975040     100.0%      0.0%      0.0%
 flops     9 x     9 x    32            407151360     100.0%      0.0%      0.0%
 flops    22 x     9 x    26            415855440     100.0%      0.0%      0.0%
 flops     9 x    22 x    26            416576160     100.0%      0.0%      0.0%
 flops    40 x    26 x   137            430859520     100.0%      0.0%      0.0%
 flops    31 x    32 x    26            433305600     100.0%      0.0%      0.0%
 flops    31 x    26 x    32            433305600     100.0%      0.0%      0.0%
 flops    22 x    26 x   133            479278800     100.0%      0.0%      0.0%
 flops    22 x    32 x   137            486097920     100.0%      0.0%      0.0%
 flops    40 x    32 x   128            495452160     100.0%      0.0%      0.0%
 flops    26 x    32 x   133            511230720     100.0%      0.0%      0.0%
 flops    32 x    26 x   133            511230720     100.0%      0.0%      0.0%
 flops    32 x    32 x   137            518504448     100.0%      0.0%      0.0%
 flops    62 x    26 x   133            540277920     100.0%      0.0%      0.0%
 flops    62 x    32 x   137            547964928     100.0%      0.0%      0.0%
 flops    40 x    32 x    32            550502400     100.0%      0.0%      0.0%
 flops    66 x    32 x   133            707857920     100.0%      0.0%      0.0%
 flops     9 x    26 x     9            802701900     100.0%      0.0%      0.0%
 flops    31 x    26 x   137            834790320     100.0%      0.0%      0.0%
 flops    31 x    32 x   128            959938560     100.0%      0.0%      0.0%
 flops    22 x     9 x    32           1023644160     100.0%      0.0%      0.0%
 flops     9 x    22 x    32           1025418240     100.0%      0.0%      0.0%
 flops    40 x    26 x   133           1045699200     100.0%      0.0%      0.0%
 flops    40 x    32 x   137           1060577280     100.0%      0.0%      0.0%
 flops    31 x    32 x    32           1066598400     100.0%      0.0%      0.0%
 flops    22 x    22 x    26           1109908800     100.0%      0.0%      0.0%
 flops    22 x    32 x   133           1179763200     100.0%      0.0%      0.0%
 flops    32 x    32 x   133           1258414080     100.0%      0.0%      0.0%
 flops    62 x    32 x   133           1329914880     100.0%      0.0%      0.0%
 flops     9 x    32 x     9           1975881600     100.0%      0.0%      0.0%
 flops    31 x    26 x   133           2026042200     100.0%      0.0%      0.0%
 flops    31 x    32 x   137           2054868480     100.0%      0.0%      0.0%
 flops    22 x    26 x     9           2081079000     100.0%      0.0%      0.0%
 flops     9 x    26 x    22           2081079000     100.0%      0.0%      0.0%
 flops    40 x    32 x   133           2574028800     100.0%      0.0%      0.0%
 flops    22 x    22 x    32           2732083200     100.0%      0.0%      0.0%
 flops    31 x    32 x   133           4987180800     100.0%      0.0%      0.0%
 flops    22 x    32 x     9           5122656000     100.0%      0.0%      0.0%
 flops     9 x    32 x    22           5122656000     100.0%      0.0%      0.0%
 flops    22 x    26 x    22           5395390000     100.0%      0.0%      0.0%
 flops    22 x    32 x    22          13280960000     100.0%      0.0%      0.0%
 flops inhomo. stacks                  1841132160     100.0%      0.0%      0.0%
 flops total                        78.481055E+09     100.0%      0.0%      0.0%
 flops max/rank                      3.655448E+09     100.0%      0.0%      0.0%
 matmuls inhomo. stacks                      5544     100.0%      0.0%      0.0%
 matmuls total                            3115170     100.0%      0.0%      0.0%
 number of processed stacks                816426     100.0%      0.0%      0.0%
 average stack size                                     3.8       0.0       0.0
 marketing flops                    85.671830E+09
 -------------------------------------------------------------------------------
 # multiplications                           1286
 max memory usage/rank               2.335203E+09
 # max total images/rank                        1
 # max 3D layers                                1
 # MPI messages exchanged                 1152256
 MPI messages size (bytes):
  total size                        26.071108E+09
  min size                           0.000000E+00
  max size                         150.152000E+03
  average size                      22.626143E+03
 MPI breakdown and total messages size (bytes):
             size <=      128              750561                        0
       128 < size <=     8192               66927                481883808
      8192 < size <=    32768               83300               2394641760
     32768 < size <=   131072              118727               4280966144
    131072 < size <=  4194304              132741              18914201880
   4194304 < size <= 16777216                   0                        0
  16777216 < size                               0                        0
 -------------------------------------------------------------------------------
 -                                                                             -
 -                      DBCSR MESSAGE PASSING PERFORMANCE                      -
 -                                                                             -
 -------------------------------------------------------------------------------
 ROUTINE             CALLS      AVE VOLUME [Bytes]
 MP_Bcast               89                     12.
 MP_Allreduce         6926                      8.
 MP_Alltoall          5344                  12862.
 MP_ISend            41124                  13427.
 MP_IRecv            41124                  12860.
 -------------------------------------------------------------------------------

 -------------------------------------------------------------------------------
 -                                                                             -
 -                                GRID STATISTICS                              -
 -                                                                             -
 -------------------------------------------------------------------------------
 LP    KERNEL             BACKEND                              COUNT     PERCENT
 2     collocate ortho    REF                                1126269      19.05%
 2     integrate ortho    REF                                1106014      18.71%
 1     collocate ortho    REF                                 943978      15.97%
 1     integrate ortho    REF                                 870340      14.72%
 3     integrate ortho    REF                                 570062       9.64%
 3     collocate ortho    REF                                 500530       8.47%
 0     collocate ortho    REF                                 281245       4.76%
 0     integrate ortho    REF                                 249988       4.23%
 4     integrate ortho    REF                                 121240       2.05%
 4     collocate ortho    REF                                  73823       1.25%
 0     collocate general  REF                                  30464       0.52%
 1     integrate general  REF                                  30464       0.52%
 5     integrate ortho    REF                                   8201       0.14%
 -------------------------------------------------------------------------------

 MEMORY| Estimated peak process memory [MiB]                                2275

 -------------------------------------------------------------------------------
 -                                                                             -
 -                         MESSAGE PASSING PERFORMANCE                         -
 -                                                                             -
 -------------------------------------------------------------------------------

 ROUTINE             CALLS      AVE VOLUME [Bytes]
 MP_Group                8
 MP_Bcast             6942               10565479.
 MP_Allreduce         2477                1659285.
 MP_Sync               437
 MP_Alltoall          1344               17978175.
 MP_ISendRecv        26019                  64431.
 MP_Wait             33670
 MP_comm_split          21
 MP_ISend             6475                 556371.
 MP_IRecv             6468                 556115.
 MP_Recv                49                 102432.
 -------------------------------------------------------------------------------


 -------------------------------------------------------------------------------
 -                                                                             -
 -                           R E F E R E N C E S                               -
 -                                                                             -
 -------------------------------------------------------------------------------
 
 CP2K version 8.2, the CP2K developers group (2021).
 CP2K is freely available from https://www.cp2k.org/ .

 Kuehne,Thomas D.; Iannuzzi,Marcella; Del Ben,Mauro;
 Rybkin,Vladimir V.; Seewald,Patrick; Stein,Frederick; Laino,Teodoro;
 Khaliullin,Rustam Z.; Schuett,Ole; Schiffmann,Florian; Golze,Dorothea;
 Wilhelm,Jan; Chulkov,Sergey; Bani-Hashemian,Mohammad Hossein;
 Weber,Valery; Borstnik,Urban; Taillefumier,Mathieu;
 Jakobovits,Alice Shoshana; Lazzaro,Alfio; Pabst,Hans; Mueller,Tiziano;
 Schade,Robert; Guidon,Manuel; Andermatt,Samuel; Holmberg,Nico;
 Schenter,Gregory K.; Hehn,Anna; Bussy,Augustin; Belleflamme,Fabian;
 Tabacchi,Gloria; Gloess,Andreas; Lass,Michael; Bethune,Iain;
 Mundy,Christopher J.; Plessl,Christian; Watkins,Matt;
 VandeVondele,Joost; Krack,Matthias; Hutter,Juerg. 
 The Journal of Chemical Physics, 152 (19), (2020). 
 CP2K: An electronic structure and molecular dynamics software package -
 Quickstep: Efficient and accurate electronic structure calculations.
 https://doi.org/10.1063/5.0007045

 Schuett, Ole; Messmer, Peter; Hutter, Juerg; VandeVondele, Joost. 
 Electronic Structure Calculations on Graphics Processing Units, John
 Wiley & Sons, Ltd, 173-190 (2016). 
 GPU-Accelerated Sparse Matrix-Matrix Multiplication for
 Linear Scaling Density Functional Theory.
 https://doi.org/10.1002/9781118670712.ch8

 Borstnik, U; VandeVondele, J; Weber, V; Hutter, J. 
 PARALLEL COMPUTING, 40 (5-6), 47-58 (2014). 
 Sparse matrix multiplication: The distributed block-compressed sparse
 row library.
 https://doi.org/10.1016/j.parco.2014.03.012

 Hutter, J; Iannuzzi, M; Schiffmann, F; VandeVondele, J. 
 WIREs Comput Mol Sci., 4 (1), 15-25 (2014). 
 CP2K: atomistic simulations of condensed matter systems.
 https://doi.org/10.1002/wcms.1159

 Marek, A; Blum, V; Johanni, R; Havu, V; Lang, B; Auckenthaler, T;
 Heinecke, A; Bungartz, H; Lederer, H. 
 Journal of Physics: Condensed Matter, 26 (21), (2014). 
 The ELPA library: scalable parallel eigenvalue solutions for
 electronic structure
 theory and computational science.
 https://doi.org/10.1088/0953-8984/26/21/213201

 Guidon, M; Hutter, J; VandeVondele, J. 
 JOURNAL OF CHEMICAL THEORY AND COMPUTATION, 5 (11), 3010-3021 (2009). 
 Robust Periodic Hartree-Fock Exchange for Large-Scale Simulations Using
 Gaussian Basis Sets.
 https://doi.org/10.1021/ct900494g

 Guidon, M; Schiffmann, F; Hutter, J; VandeVondele, J. 
 JOURNAL OF CHEMICAL PHYSICS, 128 (21), 214104 (2008). 
 Ab initio molecular dynamics using hybrid density functionals.
 https://doi.org/10.1063/1.2931945

 Kuhne, TD; Krack, M; Mohamed, FR; Parrinello, M. 
 PHYSICAL REVIEW LETTERS, 98 (6), 066401 (2007). 
 Efficient and accurate Car-Parrinello-like approach to
 Born-Oppenheimer molecular dynamics.
 https://doi.org/10.1103/PhysRevLett.98.066401

 Laino, T; Mohamed, F; Laio, A; Parrinello, M. 
 JOURNAL OF CHEMICAL THEORY AND COMPUTATION, 2 (5), 1370-1378 (2006). 
 An efficient linear-scaling electrostatic coupling for treating
 periodic boundary conditions in QM/MM simulations.
 https://doi.org/10.1021/ct6001169

 Laino, T; Mohamed, F; Laio, A; Parrinello, M. 
 JOURNAL OF CHEMICAL THEORY AND COMPUTATION, 1 (6), 1176-1184 (2005). 
 An efficient real space multigrid QM/MM electrostatic coupling.
 https://doi.org/10.1021/ct050123f

 Krack, M. 
 THEORETICAL CHEMISTRY ACCOUNTS, 114 (1-3), 145-152 (2005). 
 Pseudopotentials for H to Kr optimized for gradient-corrected
 exchange-correlation functionals.
 https://doi.org/10.1007/s00214-005-0655-y

 VandeVondele, J; Krack, M; Mohamed, F; Parrinello, M; Chassaing, T;
 Hutter, J. COMPUTER PHYSICS COMMUNICATIONS, 167 (2), 103-128 (2005). 
 QUICKSTEP: Fast and accurate density functional calculations using a
 mixed Gaussian and plane waves approach.
 https://doi.org/10.1016/j.cpc.2004.12.014

 Frigo, M; Johnson, SG. 
 PROCEEDINGS OF THE IEEE, 93 (2), 216-231 (2005). 
 The design and implementation of FFTW3.
 https://doi.org/10.1109/JPROC.2004.840301

 Kolafa, J. 
 JOURNAL OF COMPUTATIONAL CHEMISTRY, 25 (3), 335-342 (2004). 
 Time-reversible always stable predictor-corrector method for molecular dynamics of polarizable molecules.
 https://doi.org/10.1002/jcc.10385

 VandeVondele, J; Hutter, J. 
 JOURNAL OF CHEMICAL PHYSICS, 118 (10), 4365-4369 (2003). 
 An efficient orbital transformation method for electronic structure
 calculations.
 https://doi.org/10.1063/1.1543154

 Hartwigsen, C; Goedecker, S; Hutter, J. 
 PHYSICAL REVIEW B, 58 (7), 3641-3662 (1998). 
 Relativistic separable dual-space Gaussian pseudopotentials from H to Rn.
 https://doi.org/10.1103/PhysRevB.58.3641

 Lippert, G; Hutter, J; Parrinello, M. 
 MOLECULAR PHYSICS, 92 (3), 477-487 (1997). 
 A hybrid Gaussian and plane wave density functional scheme.
 https://doi.org/10.1080/002689797170220

 Perdew, JP; Burke, K; Ernzerhof, M. 
 PHYSICAL REVIEW LETTERS, 77 (18), 3865-3868 (1996). 
 Generalized gradient approximation made simple.
 https://doi.org/10.1103/PhysRevLett.77.3865

 Goedecker, S; Teter, M; Hutter, J. 
 PHYSICAL REVIEW B, 54 (3), 1703-1710 (1996). 
 Separable dual-space Gaussian pseudopotentials.
 https://doi.org/10.1103/PhysRevB.54.1703

 ESSMANN, U; PERERA, L; BERKOWITZ, ML; DARDEN, T; LEE, H; PEDERSEN, LG. 
 JOURNAL OF CHEMICAL PHYSICS, 103 (19), 8577-8593 (1995). 
 A SMOOTH PARTICLE MESH EWALD METHOD.
 https://doi.org/10.1063/1.470117

 BLOCHL, PE. 
 JOURNAL OF CHEMICAL PHYSICS, 103 (17), 7422-7428 (1995). 
 ELECTROSTATIC DECOUPLING OF PERIODIC IMAGES OF PLANE-WAVE-EXPANDED
 DENSITIES AND DERIVED ATOMIC POINT CHARGES.
 https://doi.org/10.1063/1.470314


 -------------------------------------------------------------------------------
 -                                                                             -
 -                                T I M I N G                                  -
 -                                                                             -
 -------------------------------------------------------------------------------
 SUBROUTINE                       CALLS  ASD         SELF TIME        TOTAL TIME
                                MAXIMUM       AVERAGE  MAXIMUM  AVERAGE  MAXIMUM
 CP2K                                 1  1.0    0.196    0.209  331.007  331.008
 qs_mol_dyn_low                       1  2.0    0.008    0.008  288.694  290.308
 velocity_verlet                      6  3.0    0.024    0.026  241.192  241.238
 qs_forces                            7  3.9    0.001    0.001  161.198  161.199
 rebuild_ks_matrix                   63  8.5    0.000    0.001  146.740  146.756
 qs_ks_build_kohn_sham_matrix        63  9.5    0.011    0.012  146.740  146.755
 hfx_ks_matrix                       63 10.5    0.003    0.003  121.249  121.278
 qs_energies                          7  4.9    0.000    0.001   86.764   86.765
 scf_env_do_scf                       7  5.9    0.000    0.001   84.527   84.528
 qs_ks_update_qs_env_forces           7  4.9    0.000    0.000   74.344   74.346
 qs_ks_update_qs_env                 63  7.8    0.001    0.002   72.405   72.418
 derivatives_four_center              7  8.9    0.015    0.284   68.185   68.186
 derivatives_four_center_main         7  9.9    0.145    0.331   67.741   67.742
 derivatives_four_center_bin        640 10.9   66.635   67.398   66.635   67.398
 qmmm_forces                          7  3.9    0.025    0.026   65.664   65.666
 qmmm_forces_with_gaussian            7  4.9    1.227    1.244   63.082   64.146
 qmmm_el_coupling                     7  3.9    0.000    0.000   53.650   54.281
 qmmm_elec_with_gaussian              7  4.9    1.099    1.146   53.645   54.276
 integrate_four_center               63 11.5    3.090    3.452   53.055   53.084
 scf_env_do_scf_inner_loop           56  6.8    0.002    0.003   51.418   51.430
 integrate_four_center_main          63 12.5    0.113    0.180   46.128   46.972
 integrate_four_center_bin         4148 13.5   46.015   46.869   46.015   46.869
 qmmm_env_create                      1  2.0    7.461    7.615   40.461   40.462
 init_scf_loop                        7  6.9    0.000    0.000   33.091   33.092
 qmmm_force_with_gaussian_low         7  5.9    0.000    0.000   31.206   32.040
 fist_init                            1  3.0    0.000    0.000   29.729   29.729
 qmmm_elec_with_gaussian_low          7  5.9    0.000    0.000   26.083   27.026
 qmmm_forces_gaussian_low_R           7  6.9    0.000    0.000   25.643   26.466
 qmmm_forces_with_gaussian_LG         7  7.9   25.643   26.466   25.643   26.466
 pw_integral_ab                    2967  7.5   23.975   25.336   24.097   25.416
 pw_restrict_s3                      21  5.9    4.364    4.603   24.258   25.144
 qmmm_elec_gaussian_low_R             7  6.9    0.000    0.000   19.560   20.478
 qmmm_elec_with_gaussian_LG           7  7.9   19.560   20.478   19.560   20.478
 pw_transfer                       1337 12.0    0.114    0.129   18.378   19.442
 fft_wrap_pw1pw2                   1113 13.1    0.013    0.014   17.986   19.047
 qmmm_elec_with_gaussian:spline       7  5.9    0.000    0.000   18.034   18.655
 pw_prolongate_s3                    21  6.9    3.199    3.383   18.034   18.655
 fft_wrap_pw1pw2_200                707 14.4    1.893    1.963   17.232   18.300
 mp_sum_dm3                          38  5.7   15.566   16.699   15.566   16.699
 force_field_control                  1  4.0    0.000    0.000   15.819   15.967
 fft3d_ps                          1113 15.1    6.790    6.965   14.137   15.250
 rdparm_amber_8                       2  6.5   12.762   12.911   14.893   14.992
 qs_vxc_create                       63 10.5    0.001    0.001   14.961   14.961
 xc_vxc_pw_create                    63 11.5    0.325    0.362   14.960   14.960
 topology_control                     1  4.0    0.000    0.000   13.747   13.849
 qs_rho_update_rho                   63  7.9    0.001    0.001   11.077   11.083
 calculate_rho_elec                  63  8.9    0.116    0.117   11.077   11.082
 force_field_pack                     1  5.0    0.008    0.010    8.876    9.022
 density_rs2pw                       63  9.9    0.003    0.004    7.295    8.762
 connectivity_control                 2  4.0    0.000    0.001    8.180    8.183
 rs_pw_transfer                     546 11.8    0.010    0.012    6.627    8.088
 read_connectivity_amber              1  6.0    0.000    0.000    8.064    8.066
 xc_rho_set_and_dset_create          63 12.5    0.157    0.166    6.928    7.622
 mp_alltoall_z22v                  1113 17.1    5.740    7.047    5.740    7.047
 read_force_field_amber               1  5.0    0.012    0.012    6.840    6.941
 qmmm_elec_gaussian_low_G             7  6.9    6.523    6.783    6.523    6.783
 -------------------------------------------------------------------------------

 The number of warnings for this run is : 0
 
 -------------------------------------------------------------------------------
  **** **** ******  **  PROGRAM ENDED AT                 2021-09-01 11:38:02.976
 ***** ** ***  *** **   PROGRAM RAN ON                                 nid001927
 **    ****   ******    PROGRAM RAN BY                                     hjbio
 ***** **    ** ** **   PROGRAM PROCESS ID                                 31351
  **** **  *******  **  PROGRAM STOPPED IN /lus/cls01095/work/d118/d118/hjbio/qm
                                           mm-benchmarking/archer2/CPU/cp2kMD/CB
                                           D_PHY-PBE0/6STEPS/2NODES/128CPN/4THRE
                                           ADS
