 DBCSR| CPU Multiplication driver                                           BLAS
 DBCSR| Multrec recursion limit                                              512
 DBCSR| Multiplication stack size                                           1000
 DBCSR| Maximum elements for images                                    UNLIMITED
 DBCSR| Multiplicative factor virtual images                                   1
 DBCSR| Use multiplication densification                                       T
 DBCSR| Multiplication size stacks                                             3
 DBCSR| Use memory pool for CPU allocation                                     F
 DBCSR| Number of 3D layers                                               SINGLE
 DBCSR| Use MPI memory allocation                                              F
 DBCSR| Use RMA algorithm                                                      F
 DBCSR| Use Communication thread                                               T
 DBCSR| Communication thread load                                             60
 DBCSR| MPI: My node id                                                        0
 DBCSR| MPI: Number of nodes                                                  16
 DBCSR| OMP: Current number of threads                                         8
 DBCSR| OMP: Max number of threads                                             8
 DBCSR| Split modifier for TAS multiplication algorithm                  1.0E+00


  **** **** ******  **  PROGRAM STARTED AT               2021-09-01 17:48:12.986
 ***** ** ***  *** **   PROGRAM STARTED ON                             nid001231
 **    ****   ******    PROGRAM STARTED BY                                 hjbio
 ***** **    ** ** **   PROGRAM PROCESS ID                                181764
  **** **  *******  **  PROGRAM STARTED IN /lus/cls01095/work/d118/d118/hjbio/qm
                                           mm-benchmarking/archer2/CPU/cp2kMD/MQ
                                           AE-B3LYP/1STEPS/1NODES/128CPN/8THREAD
                                           S

 CP2K| version string:                                          CP2K version 8.2
 CP2K| source code revision number:                                  git:310b7ab
 CP2K| cp2kflags: omp libint fftw3 libxc elpa parallel mpi3 scalapack plumed2   
 CP2K| is freely available from                            https://www.cp2k.org/
 CP2K| Program compiled at                          Thu 10 Jun 17:43:51 BST 2021
 CP2K| Program compiled on                                                 uan01
 CP2K| Program compiled for                                              ARCHER2
 CP2K| Data directory path              /work/d118/d118/hjbio/CP2K/cp2k-8.2/data
 CP2K| Input file name                                             mqae-cp2k.inp

 GLOBAL| Force Environment number                                              1
 GLOBAL| Basis set file name                                     EMSL_BASIS_SETS
 GLOBAL| Potential file name                                           POTENTIAL
 GLOBAL| MM Potential file name                                     MM_POTENTIAL
 GLOBAL| Coordinate file name                                           mqae.pdb
 GLOBAL| Method name                                                        CP2K
 GLOBAL| Project name                                                 MQAE-B3LYP
 GLOBAL| Run type                                                             MD
 GLOBAL| FFT library                                                       FFTW3
 GLOBAL| Diagonalization library                                            ELPA
 GLOBAL| Minimum number of eigenvectors for ELPA usage                        16
 GLOBAL| Orthonormality check for eigenvectors                          DISABLED
 GLOBAL| Matrix multiplication library                                    SCALAP
 GLOBAL| All-to-all communication in single precision                          F
 GLOBAL| FFTs using library dependent lengths                                  F
 GLOBAL| Grid backend                                                       AUTO
 GLOBAL| Global print level                                                  LOW
 GLOBAL| MPI I/O enabled                                                       T
 GLOBAL| Total number of message passing processes                            16
 GLOBAL| Number of threads for this process                                    8
 GLOBAL| This output is from process                                           0
 GLOBAL| CPU model name                          AMD EPYC 7742 64-Core Processor
 GLOBAL| CPUID                                                              1002

 MEMORY| system memory details [Kb]
 MEMORY|                        rank 0           min           max       average
 MEMORY| MemTotal            263568576     263568576     263568576     263568576
 MEMORY| MemFree             251135616     251135616     251135616     251135616
 MEMORY| Buffers                335420        335420        335420        335420
 MEMORY| Cached                3085684       3085684       3085684       3085684
 MEMORY| Slab                  1696516       1696516       1696516       1696516
 MEMORY| SReclaimable           231924        231924        231924        231924
 MEMORY| MemLikelyFree       254788644     254788644     254788644     254788644



                      ************* ******** ***********   
                     ************* **********************  
                     ****     **** ****      ***********   
                     ******** ****  *******     ****       
                     *******  ****   *******   ****        
                     ****     ****       ****  ****        
                     ****     **** **********  ****        
                      ****     **** ********    ****       
                     FRONTIERS IN SIMULATION TECHNOLOGY    
                                                           
                        C.J. Mundy, S. Balasubramanian,    
                     Ken Bagchi, J. Hutter, Ari Seitsonen  
                      IFW Kuo, T. Laino, J. VandeVondele   
                                 Version 1.0               

                                                           


 EWALD| Summation is done by:                                               SPME
 EWALD| Alpha parameter [       ANGSTROM^-1]                              0.4000
 EWALD| Real Space Cutoff [          ANGSTROM]                            8.4348
 EWALD| G-space max. Miller index                         80        80        80
 EWALD| Spline interpolation order                                             6

 FORCEFIELD| WARNING: A non Critical ForceField parameter is missing! CP2K GOES!
 FORCEFIELD| Non critical parameters are:Urey-Bradley,Torsions,Impropers, Opbends and 1-4
 FORCEFIELD| All missing parameters will not contribute to the potential energy!
 FORCEFIELD| Activate the print key FF_INFO to have a list of missing parameters

 CHARGE_INFO| Total Charge of the Classical System:                     0.000000

 SPLINE_INFO| Generating 465 splines for NONBONDED14 interactions 
              Due to 30 different atomic kinds
  ...46  ...92  ...138  ...184  ...230  ...276  ...322  ...368  ...414  ...460
 SPLINE_INFO| Number of unique splines computed:            22
 SPLINE_INFO| Done

 SPLINE_INFO| Generating 465 splines for NONBONDED interactions 
              Due to 30 different atomic kinds
  ...46  ...92  ...138  ...184  ...230  ...276  ...322  ...368  ...414  ...460
 SPLINE_INFO| Number of unique splines computed:            22
 SPLINE_INFO| Done

 *******************************************************************************
 *******************************************************************************
 **                                                                           **
 **     #####                         ##              ##                      **
 **    ##   ##            ##          ##              ##                      **
 **   ##     ##                       ##            ######                    **
 **   ##     ##  ##   ##  ##   #####  ##  ##   ####   ##    #####    #####    **
 **   ##     ##  ##   ##  ##  ##      ## ##   ##      ##   ##   ##  ##   ##   **
 **   ##  ## ##  ##   ##  ##  ##      ####     ###    ##   ######   ######    **
 **    ##  ###   ##   ##  ##  ##      ## ##      ##   ##   ##       ##        **
 **     #######   #####   ##   #####  ##  ##  ####    ##    #####   ##        **
 **           ##                                                    ##        **
 **                                                                           **
 **                                                ... make the atoms dance   **
 **                                                                           **
 **            Copyright (C) by CP2K developers group (2000-2021)             **
 **                      J. Chem. Phys. 152, 194103 (2020)                    **
 **                                                                           **
 *******************************************************************************


 TOTAL NUMBERS AND MAXIMUM NUMBERS

  Total number of            - Atomic kinds:                                   4
                             - Atoms:                                         34
                             - Shell sets:                                   120
                             - Shells:                                       156
                             - Primitive Cartesian functions:                278
                             - Cartesian basis functions:                    350
                             - Spherical basis functions:                    332

  Maximum angular momentum of- Orbital basis functions:                        2
                             - Local part of the GTH pseudopotential:          2
                             - Non-local part of the GTH pseudopotential:      0


 SCF PARAMETERS         Density guess:                                   RESTART
                        --------------------------------------------------------
                        max_scf:                                              20
                        max_scf_history:                                       0
                        max_diis:                                              4
                        --------------------------------------------------------
                        eps_scf:                                        1.00E-06
                        eps_scf_history:                                0.00E+00
                        eps_diis:                                       1.00E-01
                        eps_eigval:                                     1.00E-05
                        --------------------------------------------------------
                        level_shift [a.u.]:                                 0.00
                        --------------------------------------------------------
                        Outer loop SCF in use 
                        No variables optimised in outer loop
                        eps_scf                                         1.00E-06
                        max_scf                                               20
                        No outer loop optimization
                        step_size                                       5.00E-01

 *******************************************************************************
 *******************************************************************************
 **                                                                           **
 **             #######  ##     ## ##     ## ##     ##                        **
 **            ##     ## ###   ### ###   ### ###   ###                        **
 **            ##     ## #### #### #### #### #### ####                        **
 **            ##     ## ## ### ## ## ### ## ## ### ##                        **
 **            ##  ## ## ##     ## ##     ## ##     ##                        **
 **            ##    ##  ##     ## ##     ## ##     ##  T.Laino and F.Mohamed **
 **             ##### ## ##     ## ##     ## ##     ##  2005 - 2015           **
 **                                                                           **
 **                                                     Calculation Started.. **
 *******************************************************************************
 *******************************************************************************

 MD_PAR| Molecular dynamics protocol (MD input parameters)
 MD_PAR| Ensemble type                                                       NVE
 MD_PAR| Number of time steps                                                  1
 MD_PAR| Time step [fs]                                                 1.000000
 MD_PAR| Temperature [K]                                              300.000000
 MD_PAR| Temperature tolerance [K]                                      0.000000
 MD_PAR| Print MD information every                                    1 step(s)
 MD_PAR| File type   Print frequency [steps]                          File names
 MD_PAR| Coordinates          1                             MQAE-B3LYP-pos-1.xyz
 MD_PAR| Velocities           1                             MQAE-B3LYP-vel-1.xyz
 MD_PAR| Energies             1                                MQAE-B3LYP-1.ener
 MD_PAR| Dump                20                             MQAE-B3LYP-1.restart

 ROT| Rotational analysis information
 ROT| Principal axes and moments of inertia [a.u.]
 ROT|                           1                   2                   3
 ROT| Eigenvalues      8.16955424013E+10   8.26770351780E+10   8.33145263212E+10
 ROT|      x              0.339476722416      0.927826629059     -0.154574581827
 ROT|      y              0.779693760491     -0.369496170761     -0.505519751982
 ROT|      z              0.526149403486     -0.051091351539      0.848855982490
 ROT| Number of rotovibrational vectors                                        6

 DOF| Calculation of degrees of freedom
 DOF| Number of atoms                                                       7186
 DOF| Number of intramolecular constraints                                     0
 DOF| Number of intermolecular constraints                                     0
 DOF| Invariants (translations + rotations)                                    3
 DOF| Degrees of freedom                                                   21555

 DOF| Restraints information
 DOF| Number of intramolecular restraints                                      0
 DOF| Number of intermolecular restraints                                      0

 MD_VEL| Velocities initialization
 MD_VEL| Initial temperature [K]                                      300.000000
 MD_VEL| COM velocity            -0.0000000000     0.0000000000    -0.0000000000

  Translating the system in order to center the QM fragment in the QM box.

 Number of electrons:                                                         94
 Number of occupied orbitals:                                                 47
 Number of molecular orbitals:                                                47

 Number of orbital functions:                                                332
 Number of independent orbital functions:                                    332

 Extrapolation method: initial_guess


 SCF WAVEFUNCTION OPTIMIZATION

  ----------------------------------- OT ---------------------------------------
  Minimizer      : DIIS                : direct inversion
                                         in the iterative subspace
                                         using   7 DIIS vectors
                                         safer DIIS on
  Preconditioner : FULL_ALL            : diagonalization, state selective
  Precond_solver : DEFAULT
  stepsize       :    0.15000000                  energy_gap     :    0.08000000
  eps_taylor     :   0.10000E-15                  max_taylor     :             4
  ----------------------------------- OT ---------------------------------------

  Step     Update method      Time    Convergence         Total energy    Change
  ------------------------------------------------------------------------------
  Decoupling Energy:                                               0.0724473675
  Recoupling Energy:                                              -0.0186060468
     1 OT DIIS     0.15E+00    3.5     0.00000025      -146.5978854948 -1.47E+02

  *** SCF run converged in     1 steps ***


  Electronic density on regular grids:        -94.0000117893       -0.0000117893
  Core density on regular grids:               94.9999999999       -0.0000000001
  Total charge density on r-space grids:        0.9999882107
  Total charge density g-space grids:           0.9999882107

  Overlap energy of the core charge distribution:               0.00000599177744
  Self energy of the core charge distribution:               -359.57183942644110
  Core Hamiltonian energy:                                    110.60578196142492
  Hartree energy:                                             145.61977572034556
  Exchange-correlation energy:                                -35.09004203385039
  Hartree-Fock Exchange energy:                                -7.83563029228630
  QM/MM Electrostatic energy:                                  -0.32593741579596

  Total energy:                                              -146.59788549482585

  outer SCF iter =    1 RMS gradient =   0.25E-06 energy =       -146.5978854948
  outer SCF loop converged in   1 iterations or    1 steps

  Decoupling Energy:                                               0.0724473841
  Recoupling Energy:                                              -0.0186060464

 ENERGY| Total FORCE_EVAL ( QMMM ) energy [a.u.]:           -125.274785505651522

 MD_INI| MD initialization
 MD_INI| Potential energy [hartree]                          -0.125274785506E+03
 MD_INI| Total kinetic energy [hartree]                       0.102391057087E+02
 MD_INI| QM kinetic energy [hartree]                          0.538313910515E-01
 MD_INI| Total temperature [K]                                        300.000000
 MD_INI| QM temperature [K]                                           333.305658
 MD_INI| Cell volume [bohr^3]                                 4.911308927827E+05
 MD_INI| Cell volume [ang^3]                                  7.277808868775E+04
 MD_INI| Cell lengths [bohr]      7.88979558E+01  7.88979558E+01  7.88979558E+01
 MD_INI| Cell lengths [ang]       4.17510000E+01  4.17510000E+01  4.17510000E+01
 MD_INI| Cell angles [deg]        9.00000000E+01  9.00000000E+01  9.00000000E+01

  Translating the system in order to center the QM fragment in the QM box.

 Number of electrons:                                                         94
 Number of occupied orbitals:                                                 47
 Number of molecular orbitals:                                                47

 Number of orbital functions:                                                332
 Number of independent orbital functions:                                    332

 Extrapolation method: ASPC


 SCF WAVEFUNCTION OPTIMIZATION

  ----------------------------------- OT ---------------------------------------
  Minimizer      : DIIS                : direct inversion
                                         in the iterative subspace
                                         using   7 DIIS vectors
                                         safer DIIS on
  Preconditioner : FULL_ALL            : diagonalization, state selective
  Precond_solver : DEFAULT
  stepsize       :    0.15000000                  energy_gap     :    0.08000000
  eps_taylor     :   0.10000E-15                  max_taylor     :             4
  ----------------------------------- OT ---------------------------------------

  Step     Update method      Time    Convergence         Total energy    Change
  ------------------------------------------------------------------------------
  Decoupling Energy:                                               0.0724407826
  Recoupling Energy:                                              -0.0186065708
     1 OT DIIS     0.15E+00    1.9     0.00263037      -146.4802501136 -1.46E+02
  Decoupling Energy:                                               0.0723365315
  Recoupling Energy:                                              -0.0186021826
     2 OT DIIS     0.15E+00    0.3     0.00099624      -146.4905838940 -1.03E-02
  Decoupling Energy:                                               0.0723590125
  Recoupling Energy:                                              -0.0186027231
     3 OT DIIS     0.15E+00    0.3     0.00037681      -146.4922803081 -1.70E-03
  Decoupling Energy:                                               0.0723311219
  Recoupling Energy:                                              -0.0186016346
     4 OT DIIS     0.15E+00    0.3     0.00013916      -146.4924802546 -2.00E-04
  Decoupling Energy:                                               0.0723461377
  Recoupling Energy:                                              -0.0186022886
     5 OT DIIS     0.15E+00    0.3     0.00005108      -146.4924955753 -1.53E-05
  Decoupling Energy:                                               0.0723413020
  Recoupling Energy:                                              -0.0186020528
     6 OT DIIS     0.15E+00    0.3     0.00001941      -146.4924979307 -2.36E-06
  Decoupling Energy:                                               0.0723421382
  Recoupling Energy:                                              -0.0186021340
     7 OT DIIS     0.15E+00    0.3     0.00000594      -146.4924982501 -3.19E-07
  Decoupling Energy:                                               0.0723424421
  Recoupling Energy:                                              -0.0186021302
     8 OT DIIS     0.15E+00    0.3     0.00000286      -146.4924982937 -4.35E-08
  Decoupling Energy:                                               0.0723422725
  Recoupling Energy:                                              -0.0186021330
     9 OT DIIS     0.15E+00    0.3     0.00000098      -146.4924983001 -6.40E-09

  *** SCF run converged in     9 steps ***


  Electronic density on regular grids:        -93.9999622185        0.0000377815
  Core density on regular grids:               94.9999999999       -0.0000000001
  Total charge density on r-space grids:        1.0000377814
  Total charge density g-space grids:           1.0000377814

  Overlap energy of the core charge distribution:               0.00003300554568
  Self energy of the core charge distribution:               -359.57183942644110
  Core Hamiltonian energy:                                    110.79920973957510
  Hartree energy:                                             145.51960221920572
  Exchange-correlation energy:                                -35.13733570561190
  Hartree-Fock Exchange energy:                                -7.84763450692752
  QM/MM Electrostatic energy:                                  -0.25453362541163

  Total energy:                                              -146.49249830006565

  outer SCF iter =    1 RMS gradient =   0.98E-06 energy =       -146.4924983001
  outer SCF loop converged in   1 iterations or    9 steps

  Decoupling Energy:                                               0.0723422902
  Recoupling Energy:                                              -0.0186021301

 ENERGY| Total FORCE_EVAL ( QMMM ) energy [a.u.]:           -154.709368848865495

 MD| ***************************************************************************
 MD| Step number                                                               1
 MD| Time [fs]                                                          1.000000
 MD| Conserved quantity [hartree]                            -0.123704339460E+03
 MD| ---------------------------------------------------------------------------
 MD|                                          Instantaneous             Averages
 MD| CPU time per MD step [s]                     17.568658            17.568658
 MD| Energy drift per atom [K]          -0.380927213033E+03   0.000000000000E+00
 MD| Potential energy [hartree]         -0.154709368849E+03  -0.154709368849E+03
 MD| Total kinetic energy [hartree]      0.310050293890E+02   0.310050293890E+02
 MD| QM kinetic energy [hartree]         0.223316759419E+00   0.223316759419E+00
 MD| Total temperature [K]                       908.429806           908.429806
 MD| QM temperature [K]                         1382.701394          1382.701394
 MD| ***************************************************************************

 -------------------------------------------------------------------------------
 -                                                                             -
 -                                DBCSR STATISTICS                             -
 -                                                                             -
 -------------------------------------------------------------------------------
 COUNTER                                    TOTAL       BLAS       SMM       ACC
 flops    10 x    15 x    15               225000     100.0%      0.0%      0.0%
 flops     5 x    15 x    15               409500     100.0%      0.0%      0.0%
 flops    10 x    32 x    15               480000     100.0%      0.0%      0.0%
 flops    10 x    15 x    32               480000     100.0%      0.0%      0.0%
 flops    15 x    15 x    15               621000     100.0%      0.0%      0.0%
 flops     5 x    32 x    15               720000     100.0%      0.0%      0.0%
 flops     5 x    15 x    32               720000     100.0%      0.0%      0.0%
 flops    10 x    32 x    32              1024000     100.0%      0.0%      0.0%
 flops    10 x    15 x    81              1166400     100.0%      0.0%      0.0%
 flops    10 x    15 x    85              1224000     100.0%      0.0%      0.0%
 flops    19 x    15 x    15              1282500     100.0%      0.0%      0.0%
 flops    15 x    15 x    32              1324800     100.0%      0.0%      0.0%
 flops    15 x    32 x    15              1324800     100.0%      0.0%      0.0%
 flops    32 x    15 x    15              1324800     100.0%      0.0%      0.0%
 flops     5 x     5 x    15              1428000     100.0%      0.0%      0.0%
 flops    14 x    15 x    15              1486800     100.0%      0.0%      0.0%
 flops     5 x    15 x    81              1749600     100.0%      0.0%      0.0%
 flops     5 x    15 x    85              1836000     100.0%      0.0%      0.0%
 flops     5 x    32 x    32              1863680     100.0%      0.0%      0.0%
 flops    10 x    32 x    81              2488320     100.0%      0.0%      0.0%
 flops    10 x    32 x    85              2611200     100.0%      0.0%      0.0%
 flops    14 x    15 x    32              2688000     100.0%      0.0%      0.0%
 flops    14 x    32 x    15              2688000     100.0%      0.0%      0.0%
 flops    19 x    15 x    32              2736000     100.0%      0.0%      0.0%
 flops    19 x    32 x    15              2736000     100.0%      0.0%      0.0%
 flops    32 x    32 x    15              2826240     100.0%      0.0%      0.0%
 flops    15 x    32 x    32              2826240     100.0%      0.0%      0.0%
 flops    32 x    15 x    32              2826240     100.0%      0.0%      0.0%
 flops     5 x     5 x    32              3046400     100.0%      0.0%      0.0%
 flops    15 x    15 x    81              3061800     100.0%      0.0%      0.0%
 flops    15 x    15 x    85              3213000     100.0%      0.0%      0.0%
 flops     5 x    32 x    81              3732480     100.0%      0.0%      0.0%
 flops     5 x    32 x    85              3916800     100.0%      0.0%      0.0%
 flops    14 x     5 x    15              4233600     100.0%      0.0%      0.0%
 flops     5 x    14 x    15              4233600     100.0%      0.0%      0.0%
 flops    19 x    32 x    32              5836800     100.0%      0.0%      0.0%
 flops    32 x    32 x    32              6029312     100.0%      0.0%      0.0%
 flops     5 x    15 x     5              6528000     100.0%      0.0%      0.0%
 flops    14 x    15 x    81              6531840     100.0%      0.0%      0.0%
 flops    15 x    32 x    81              6531840     100.0%      0.0%      0.0%
 flops    32 x    15 x    81              6531840     100.0%      0.0%      0.0%
 flops    19 x    15 x    81              6648480     100.0%      0.0%      0.0%
 flops    14 x    32 x    32              6766592     100.0%      0.0%      0.0%
 flops    14 x    15 x    85              6854400     100.0%      0.0%      0.0%
 flops    15 x    32 x    85              6854400     100.0%      0.0%      0.0%
 flops    32 x    15 x    85              6854400     100.0%      0.0%      0.0%
 flops    19 x    15 x    85              6976800     100.0%      0.0%      0.0%
 flops    14 x     5 x    32              9031680     100.0%      0.0%      0.0%
 flops     5 x    14 x    32              9031680     100.0%      0.0%      0.0%
 flops     5 x    32 x     5             13926400     100.0%      0.0%      0.0%
 flops    32 x    32 x    81             13934592     100.0%      0.0%      0.0%
 flops    14 x    32 x    81             13934592     100.0%      0.0%      0.0%
 flops    14 x    14 x    15             14076720     100.0%      0.0%      0.0%
 flops    19 x    32 x    81             14183424     100.0%      0.0%      0.0%
 flops    32 x    32 x    85             14622720     100.0%      0.0%      0.0%
 flops    14 x    32 x    85             14622720     100.0%      0.0%      0.0%
 flops    19 x    32 x    85             14883840     100.0%      0.0%      0.0%
 flops    14 x    15 x     5             20563200     100.0%      0.0%      0.0%
 flops     5 x    15 x    14             20563200     100.0%      0.0%      0.0%
 flops    14 x    14 x    32             30030336     100.0%      0.0%      0.0%
 flops    14 x    32 x     5             43868160     100.0%      0.0%      0.0%
 flops     5 x    32 x    14             43868160     100.0%      0.0%      0.0%
 flops    14 x    15 x    14             64774080     100.0%      0.0%      0.0%
 flops    14 x    32 x    14            138184704     100.0%      0.0%      0.0%
 flops inhomo. stacks                   286181120     100.0%      0.0%      0.0%
 flops total                       929.780832E+06     100.0%      0.0%      0.0%
 flops max/rank                    183.059132E+06     100.0%      0.0%      0.0%
 matmuls inhomo. stacks                      3136     100.0%      0.0%      0.0%
 matmuls total                             104260     100.0%      0.0%      0.0%
 number of processed stacks                 29560     100.0%      0.0%      0.0%
 average stack size                                     3.5       0.0       0.0
 marketing flops                   905.908480E+06
 -------------------------------------------------------------------------------
 # multiplications                            260
 max memory usage/rank               1.437237E+09
 # max total images/rank                        1
 # max 3D layers                                1
 # MPI messages exchanged                   24960
 MPI messages size (bytes):
  total size                       249.035616E+06
  min size                           0.000000E+00
  max size                          57.800000E+03
  average size                       9.977389E+03
 MPI breakdown and total messages size (bytes):
             size <=      128               14028                        0
       128 < size <=     8192                2820                 12465696
      8192 < size <=    32768                5328                 83138112
     32768 < size <=   131072                2784                153431808
    131072 < size <=  4194304                   0                        0
   4194304 < size <= 16777216                   0                        0
  16777216 < size                               0                        0
 -------------------------------------------------------------------------------
 -                                                                             -
 -                      DBCSR MESSAGE PASSING PERFORMANCE                      -
 -                                                                             -
 -------------------------------------------------------------------------------
 ROUTINE             CALLS      AVE VOLUME [Bytes]
 MP_Bcast               65                     12.
 MP_Allreduce         1496                     10.
 MP_Alltoall          1157                   4903.
 MP_ISend             4152                   5888.
 MP_IRecv             4152                   5021.
 -------------------------------------------------------------------------------

 -------------------------------------------------------------------------------
 -                                                                             -
 -                                GRID STATISTICS                              -
 -                                                                             -
 -------------------------------------------------------------------------------
 LP    KERNEL             BACKEND                              COUNT     PERCENT
 1     collocate ortho    REF                                  73588      21.47%
 1     integrate ortho    REF                                  67840      19.79%
 2     integrate ortho    REF                                  49060      14.31%
 2     collocate ortho    REF                                  44156      12.88%
 0     collocate ortho    REF                                  39092      11.40%
 0     integrate ortho    REF                                  32574       9.50%
 3     integrate ortho    REF                                  17462       5.09%
 3     collocate ortho    REF                                  12120       3.54%
 4     integrate ortho    REF                                   3140       0.92%
 4     collocate ortho    REF                                   1344       0.39%
 0     collocate general  REF                                   1088       0.32%
 1     integrate general  REF                                   1088       0.32%
 5     integrate ortho    REF                                    224       0.07%
 -------------------------------------------------------------------------------

 MEMORY| Estimated peak process memory [MiB]                                1371

 -------------------------------------------------------------------------------
 -                                                                             -
 -                         MESSAGE PASSING PERFORMANCE                         -
 -                                                                             -
 -------------------------------------------------------------------------------

 ROUTINE             CALLS      AVE VOLUME [Bytes]
 MP_Group                8
 MP_Bcast              486                6553942.
 MP_Allreduce          806                 261907.
 MP_Sync                97
 MP_Alltoall           266               12579014.
 MP_ISendRecv         1590                 105852.
 MP_Wait              2084
 MP_comm_split           6
 MP_ISend              386                 966237.
 MP_IRecv              384                 969973.
 MP_Recv                 6                  31872.
 -------------------------------------------------------------------------------


 -------------------------------------------------------------------------------
 -                                                                             -
 -                           R E F E R E N C E S                               -
 -                                                                             -
 -------------------------------------------------------------------------------
 
 CP2K version 8.2, the CP2K developers group (2021).
 CP2K is freely available from https://www.cp2k.org/ .

 Kuehne,Thomas D.; Iannuzzi,Marcella; Del Ben,Mauro;
 Rybkin,Vladimir V.; Seewald,Patrick; Stein,Frederick; Laino,Teodoro;
 Khaliullin,Rustam Z.; Schuett,Ole; Schiffmann,Florian; Golze,Dorothea;
 Wilhelm,Jan; Chulkov,Sergey; Bani-Hashemian,Mohammad Hossein;
 Weber,Valery; Borstnik,Urban; Taillefumier,Mathieu;
 Jakobovits,Alice Shoshana; Lazzaro,Alfio; Pabst,Hans; Mueller,Tiziano;
 Schade,Robert; Guidon,Manuel; Andermatt,Samuel; Holmberg,Nico;
 Schenter,Gregory K.; Hehn,Anna; Bussy,Augustin; Belleflamme,Fabian;
 Tabacchi,Gloria; Gloess,Andreas; Lass,Michael; Bethune,Iain;
 Mundy,Christopher J.; Plessl,Christian; Watkins,Matt;
 VandeVondele,Joost; Krack,Matthias; Hutter,Juerg. 
 The Journal of Chemical Physics, 152 (19), (2020). 
 CP2K: An electronic structure and molecular dynamics software package -
 Quickstep: Efficient and accurate electronic structure calculations.
 https://doi.org/10.1063/5.0007045

 Schuett, Ole; Messmer, Peter; Hutter, Juerg; VandeVondele, Joost. 
 Electronic Structure Calculations on Graphics Processing Units, John
 Wiley & Sons, Ltd, 173-190 (2016). 
 GPU-Accelerated Sparse Matrix-Matrix Multiplication for
 Linear Scaling Density Functional Theory.
 https://doi.org/10.1002/9781118670712.ch8

 Borstnik, U; VandeVondele, J; Weber, V; Hutter, J. 
 PARALLEL COMPUTING, 40 (5-6), 47-58 (2014). 
 Sparse matrix multiplication: The distributed block-compressed sparse
 row library.
 https://doi.org/10.1016/j.parco.2014.03.012

 Hutter, J; Iannuzzi, M; Schiffmann, F; VandeVondele, J. 
 WIREs Comput Mol Sci., 4 (1), 15-25 (2014). 
 CP2K: atomistic simulations of condensed matter systems.
 https://doi.org/10.1002/wcms.1159

 Marek, A; Blum, V; Johanni, R; Havu, V; Lang, B; Auckenthaler, T;
 Heinecke, A; Bungartz, H; Lederer, H. 
 Journal of Physics: Condensed Matter, 26 (21), (2014). 
 The ELPA library: scalable parallel eigenvalue solutions for
 electronic structure
 theory and computational science.
 https://doi.org/10.1088/0953-8984/26/21/213201

 Guidon, M; Hutter, J; VandeVondele, J. 
 JOURNAL OF CHEMICAL THEORY AND COMPUTATION, 5 (11), 3010-3021 (2009). 
 Robust Periodic Hartree-Fock Exchange for Large-Scale Simulations Using
 Gaussian Basis Sets.
 https://doi.org/10.1021/ct900494g

 Guidon, M; Schiffmann, F; Hutter, J; VandeVondele, J. 
 JOURNAL OF CHEMICAL PHYSICS, 128 (21), 214104 (2008). 
 Ab initio molecular dynamics using hybrid density functionals.
 https://doi.org/10.1063/1.2931945

 Kuhne, TD; Krack, M; Mohamed, FR; Parrinello, M. 
 PHYSICAL REVIEW LETTERS, 98 (6), 066401 (2007). 
 Efficient and accurate Car-Parrinello-like approach to
 Born-Oppenheimer molecular dynamics.
 https://doi.org/10.1103/PhysRevLett.98.066401

 Laino, T; Mohamed, F; Laio, A; Parrinello, M. 
 JOURNAL OF CHEMICAL THEORY AND COMPUTATION, 2 (5), 1370-1378 (2006). 
 An efficient linear-scaling electrostatic coupling for treating
 periodic boundary conditions in QM/MM simulations.
 https://doi.org/10.1021/ct6001169

 Laino, T; Mohamed, F; Laio, A; Parrinello, M. 
 JOURNAL OF CHEMICAL THEORY AND COMPUTATION, 1 (6), 1176-1184 (2005). 
 An efficient real space multigrid QM/MM electrostatic coupling.
 https://doi.org/10.1021/ct050123f

 Krack, M. 
 THEORETICAL CHEMISTRY ACCOUNTS, 114 (1-3), 145-152 (2005). 
 Pseudopotentials for H to Kr optimized for gradient-corrected
 exchange-correlation functionals.
 https://doi.org/10.1007/s00214-005-0655-y

 VandeVondele, J; Krack, M; Mohamed, F; Parrinello, M; Chassaing, T;
 Hutter, J. COMPUTER PHYSICS COMMUNICATIONS, 167 (2), 103-128 (2005). 
 QUICKSTEP: Fast and accurate density functional calculations using a
 mixed Gaussian and plane waves approach.
 https://doi.org/10.1016/j.cpc.2004.12.014

 Frigo, M; Johnson, SG. 
 PROCEEDINGS OF THE IEEE, 93 (2), 216-231 (2005). 
 The design and implementation of FFTW3.
 https://doi.org/10.1109/JPROC.2004.840301

 Kolafa, J. 
 JOURNAL OF COMPUTATIONAL CHEMISTRY, 25 (3), 335-342 (2004). 
 Time-reversible always stable predictor-corrector method for molecular dynamics of polarizable molecules.
 https://doi.org/10.1002/jcc.10385

 VandeVondele, J; Hutter, J. 
 JOURNAL OF CHEMICAL PHYSICS, 118 (10), 4365-4369 (2003). 
 An efficient orbital transformation method for electronic structure
 calculations.
 https://doi.org/10.1063/1.1543154

 Hartwigsen, C; Goedecker, S; Hutter, J. 
 PHYSICAL REVIEW B, 58 (7), 3641-3662 (1998). 
 Relativistic separable dual-space Gaussian pseudopotentials from H to Rn.
 https://doi.org/10.1103/PhysRevB.58.3641

 Lippert, G; Hutter, J; Parrinello, M. 
 MOLECULAR PHYSICS, 92 (3), 477-487 (1997). 
 A hybrid Gaussian and plane wave density functional scheme.
 https://doi.org/10.1080/002689797170220

 Goedecker, S; Teter, M; Hutter, J. 
 PHYSICAL REVIEW B, 54 (3), 1703-1710 (1996). 
 Separable dual-space Gaussian pseudopotentials.
 https://doi.org/10.1103/PhysRevB.54.1703

 ESSMANN, U; PERERA, L; BERKOWITZ, ML; DARDEN, T; LEE, H; PEDERSEN, LG. 
 JOURNAL OF CHEMICAL PHYSICS, 103 (19), 8577-8593 (1995). 
 A SMOOTH PARTICLE MESH EWALD METHOD.
 https://doi.org/10.1063/1.470117

 BLOCHL, PE. 
 JOURNAL OF CHEMICAL PHYSICS, 103 (17), 7422-7428 (1995). 
 ELECTROSTATIC DECOUPLING OF PERIODIC IMAGES OF PLANE-WAVE-EXPANDED
 DENSITIES AND DERIVED ATOMIC POINT CHARGES.
 https://doi.org/10.1063/1.470314

 BECKE, AD. PHYSICAL REVIEW A, 38 (6), 3098-3100 (1988). 
 DENSITY-FUNCTIONAL EXCHANGE-ENERGY APPROXIMATION WITH CORRECT
 ASYMPTOTIC-BEHAVIOR.
 https://doi.org/10.1103/PhysRevA.38.3098

 LEE, CT; YANG, WT; PARR, RG. 
 PHYSICAL REVIEW B, 37 (2), 785-789 (1988). 
 DEVELOPMENT OF THE COLLE-SALVETTI CORRELATION-ENERGY FORMULA INTO A
 FUNCTIONAL OF THE ELECTRON-DENSITY.
 https://doi.org/10.1103/PhysRevB.37.785

 VOSKO, SH; WILK, L; NUSAIR, M. 
 CANADIAN JOURNAL OF PHYSICS, 58 (8), 1200-1211 (1980). 
 ACCURATE SPIN-DEPENDENT ELECTRON LIQUID CORRELATION ENERGIES FOR LOCAL
 SPIN-DENSITY CALCULATIONS - A CRITICAL ANALYSIS.
 https://doi.org/10.1139/p80-159


 -------------------------------------------------------------------------------
 -                                                                             -
 -                                T I M I N G                                  -
 -                                                                             -
 -------------------------------------------------------------------------------
 SUBROUTINE                       CALLS  ASD         SELF TIME        TOTAL TIME
                                MAXIMUM       AVERAGE  MAXIMUM  AVERAGE  MAXIMUM
 CP2K                                 1  1.0    0.015    0.020   19.038   19.039
 qs_mol_dyn_low                       1  2.0    0.003    0.003   17.616   17.693
 qs_forces                            2  3.5    0.000    0.000   12.019   12.020
 rebuild_ks_matrix                   12  8.3    0.000    0.000   10.650   10.651
 qs_ks_build_kohn_sham_matrix        12  9.3    0.002    0.002   10.650   10.651
 hfx_ks_matrix                       12 10.3    0.000    0.000    8.836    8.904
 velocity_verlet                      1  3.0    0.000    0.000    8.736    8.738
 qs_energies                          2  4.5    0.000    0.000    8.443    8.443
 scf_env_do_scf                       2  5.5    0.000    0.000    8.085    8.085
 qs_ks_update_qs_env                 12  7.8    0.000    0.000    7.082    7.083
 integrate_four_center               12 11.3    1.193    1.961    5.761    5.829
 init_scf_loop                        2  6.5    0.000    0.000    5.361    5.361
 qs_ks_update_qs_env_forces           2  4.5    0.000    0.000    3.568    3.569
 derivatives_four_center              2  8.5    0.023    0.264    3.074    3.074
 qmmm_el_coupling                     2  3.5    0.000    0.000    2.918    2.933
 qmmm_elec_with_gaussian              2  4.5    0.042    0.044    2.918    2.933
 derivatives_four_center_main         2  9.5    0.008    0.020    2.790    2.790
 derivatives_four_center_bin        398 10.6    2.687    2.772    2.687    2.772
 scf_env_do_scf_inner_loop           10  6.9    0.000    0.001    2.721    2.723
 integrate_four_center_main          12 12.3    0.011    0.019    2.613    2.643
 integrate_four_center_bin          897 13.3    2.602    2.632    2.602    2.632
 qmmm_forces                          2  3.5    0.000    0.000    1.968    1.968
 qmmm_forces_with_gaussian            2  4.5    0.042    0.044    1.926    1.945
 qmmm_elec_with_gaussian_low          2  5.5    0.000    0.000    1.792    1.843
 qmmm_elec_gaussian_low_G             2  6.5    1.672    1.717    1.672    1.717
 pw_transfer                        262 11.7    0.015    0.017    1.337    1.381
 fft_wrap_pw1pw2                    216 12.9    0.002    0.002    1.305    1.348
 qmmm_env_create                      1  2.0    0.026    0.026    1.321    1.321
 fft_wrap_pw1pw2_200                136 14.2    0.118    0.120    1.247    1.290
 pw_integral_ab                     868  6.9    1.217    1.233    1.226    1.242
 fft3d_ps                           216 14.9    0.376    0.382    1.039    1.085
 qs_vxc_create                       12 10.3    0.000    0.000    1.025    1.025
 xc_vxc_pw_create                    12 11.3    0.031    0.033    1.025    1.025
 pw_restrict_s3                       6  5.5    0.147    0.152    0.976    0.992
 powell_optimize                 531869 13.0    0.878    0.887    0.878    0.887
 qs_rho_update_rho                   12  7.9    0.000    0.000    0.882    0.883
 calculate_rho_elec                  12  8.9    0.016    0.017    0.882    0.883
 qmmm_elec_with_gaussian:spline       2  5.5    0.000    0.000    0.796    0.809
 pw_prolongate_s3                     6  6.5    0.119    0.123    0.796    0.809
 qmmm_force_with_gaussian_low         2  5.5    0.000    0.000    0.719    0.725
 calc_screening_functions             1 12.0    0.174    0.176    0.647    0.650
 mp_sum_dm3                          13  5.2    0.561    0.628    0.561    0.628
 mp_sync                             97 12.6    0.447    0.622    0.447    0.622
 qmmm_forces_gaussian_low_G           2  6.5    0.597    0.603    0.597    0.603
 fist_init                            1  3.0    0.000    0.000    0.577    0.577
 calc_pair_dist_radii                 1 12.0    0.156    0.159    0.561    0.565
 mp_alltoall_z22v                   216 16.9    0.507    0.551    0.507    0.551
 mp_bcast_im                         61 10.1    0.507    0.543    0.507    0.543
 xc_rho_set_and_dset_create          12 12.3    0.037    0.041    0.513    0.536
 init_cube_info                       8  5.5    0.522    0.533    0.522    0.533
 qs_ks_qmmm_create                    1  3.0    0.000    0.000    0.522    0.533
 sum_up_and_integrate                12 10.3    0.005    0.006    0.470    0.477
 integrate_v_rspace                  12 11.3    0.000    0.000    0.464    0.472
 rs_pw_transfer                     108 11.5    0.001    0.001    0.448    0.469
 qs_init_subsys                       1  3.0    0.001    0.001    0.467    0.467
 qs_env_setup                         1  4.0    0.000    0.000    0.126    0.464
 qs_env_rebuild_pw_env                5  5.0    0.000    0.000    0.126    0.464
 pw_env_rebuild                       1  6.0    0.000    0.000    0.126    0.464
 grid_collocate_task_list            12  9.9    0.437    0.456    0.437    0.456
 rdparm_amber_8                       2  6.5    0.385    0.391    0.451    0.452
 density_rs2pw                       12  9.9    0.000    0.000    0.426    0.445
 potential_pw2rs                     12 12.3    0.001    0.001    0.411    0.418
 yz_to_x                            100 15.6    0.070    0.072    0.369    0.413
 init_qs_kind_set                     1  4.0    0.000    0.000    0.340    0.387
 init_qs_kind                         4  5.0    0.000    0.000    0.340    0.387
 init_orb_basis_set                   4  6.0    0.000    0.000    0.340    0.387
 init_cphi_and_sphi                   4  7.0    0.340    0.387    0.340    0.387
 mp_comm_dup                         21  5.0    0.050    0.387    0.050    0.387
 -------------------------------------------------------------------------------

 The number of warnings for this run is : 0
 
 -------------------------------------------------------------------------------
  **** **** ******  **  PROGRAM ENDED AT                 2021-09-01 17:48:32.365
 ***** ** ***  *** **   PROGRAM RAN ON                                 nid001231
 **    ****   ******    PROGRAM RAN BY                                     hjbio
 ***** **    ** ** **   PROGRAM PROCESS ID                                181764
  **** **  *******  **  PROGRAM STOPPED IN /lus/cls01095/work/d118/d118/hjbio/qm
                                           mm-benchmarking/archer2/CPU/cp2kMD/MQ
                                           AE-B3LYP/1STEPS/1NODES/128CPN/8THREAD
                                           S
