 DBCSR| CPU Multiplication driver                                           BLAS
 DBCSR| Multrec recursion limit                                              512
 DBCSR| Multiplication stack size                                           1000
 DBCSR| Maximum elements for images                                    UNLIMITED
 DBCSR| Multiplicative factor virtual images                                   1
 DBCSR| Use multiplication densification                                       T
 DBCSR| Multiplication size stacks                                             3
 DBCSR| Use memory pool for CPU allocation                                     F
 DBCSR| Number of 3D layers                                               SINGLE
 DBCSR| Use MPI memory allocation                                              F
 DBCSR| Use RMA algorithm                                                      F
 DBCSR| Use Communication thread                                               T
 DBCSR| Communication thread load                                             60
 DBCSR| MPI: My node id                                                        0
 DBCSR| MPI: Number of nodes                                                  16
 DBCSR| OMP: Current number of threads                                         8
 DBCSR| OMP: Max number of threads                                             8
 DBCSR| Split modifier for TAS multiplication algorithm                  1.0E+00


  **** **** ******  **  PROGRAM STARTED AT               2021-08-31 17:43:46.263
 ***** ** ***  *** **   PROGRAM STARTED ON                             nid001758
 **    ****   ******    PROGRAM STARTED BY                                 hjbio
 ***** **    ** ** **   PROGRAM PROCESS ID                                 72819
  **** **  *******  **  PROGRAM STARTED IN /lus/cls01095/work/d118/d118/hjbio/qm
                                           mm-benchmarking/archer2/CPU/cp2kMD/CB
                                           D_PHY-PBE0/6STEPS/1NODES/128CPN/8THRE
                                           ADS

 CP2K| version string:                                          CP2K version 8.2
 CP2K| source code revision number:                                  git:310b7ab
 CP2K| cp2kflags: omp libint fftw3 libxc elpa parallel mpi3 scalapack plumed2   
 CP2K| is freely available from                            https://www.cp2k.org/
 CP2K| Program compiled at                          Thu 10 Jun 17:43:51 BST 2021
 CP2K| Program compiled on                                                 uan01
 CP2K| Program compiled for                                              ARCHER2
 CP2K| Data directory path              /work/d118/d118/hjbio/CP2K/cp2k-8.2/data
 CP2K| Input file name                                          CBD_PHY-cp2k.inp

 GLOBAL| Force Environment number                                              1
 GLOBAL| Basis set file name                                           HFX_BASIS
 GLOBAL| Potential file name                                           POTENTIAL
 GLOBAL| MM Potential file name                                     MM_POTENTIAL
 GLOBAL| Coordinate file name                                        CBD_PHY.pdb
 GLOBAL| Method name                                                        CP2K
 GLOBAL| Project name                                               CBD_PHY-PBE0
 GLOBAL| Run type                                                             MD
 GLOBAL| FFT library                                                       FFTW3
 GLOBAL| Diagonalization library                                            ELPA
 GLOBAL| Minimum number of eigenvectors for ELPA usage                        16
 GLOBAL| Orthonormality check for eigenvectors                          DISABLED
 GLOBAL| Matrix multiplication library                                    SCALAP
 GLOBAL| All-to-all communication in single precision                          F
 GLOBAL| FFTs using library dependent lengths                                  F
 GLOBAL| Grid backend                                                       AUTO
 GLOBAL| Global print level                                                  LOW
 GLOBAL| MPI I/O enabled                                                       T
 GLOBAL| Total number of message passing processes                            16
 GLOBAL| Number of threads for this process                                    8
 GLOBAL| This output is from process                                           0
 GLOBAL| CPU model name                          AMD EPYC 7742 64-Core Processor
 GLOBAL| CPUID                                                              1002

 MEMORY| system memory details [Kb]
 MEMORY|                        rank 0           min           max       average
 MEMORY| MemTotal            263568576     263568576     263568576     263568576
 MEMORY| MemFree             250092064     250092064     250092064     250092064
 MEMORY| Buffers                318464        318464        318464        318464
 MEMORY| Cached                3062468       3062468       3062468       3062468
 MEMORY| Slab                  1801652       1801652       1801652       1801652
 MEMORY| SReclaimable           235912        235912        235912        235912
 MEMORY| MemLikelyFree       253708908     253708908     253708908     253708908



                      ************* ******** ***********   
                     ************* **********************  
                     ****     **** ****      ***********   
                     ******** ****  *******     ****       
                     *******  ****   *******   ****        
                     ****     ****       ****  ****        
                     ****     **** **********  ****        
                      ****     **** ********    ****       
                     FRONTIERS IN SIMULATION TECHNOLOGY    
                                                           
                        C.J. Mundy, S. Balasubramanian,    
                     Ken Bagchi, J. Hutter, Ari Seitsonen  
                      IFW Kuo, T. Laino, J. VandeVondele   
                                 Version 1.0               

                                                           


 EWALD| Summation is done by:                                               SPME
 EWALD| Alpha parameter [       ANGSTROM^-1]                              0.4000
 EWALD| Real Space Cutoff [          ANGSTROM]                            8.4348
 EWALD| G-space max. Miller index                         80        80        80
 EWALD| Spline interpolation order                                             6

 FORCEFIELD| WARNING: A non Critical ForceField parameter is missing! CP2K GOES!
 FORCEFIELD| Non critical parameters are:Urey-Bradley,Torsions,Impropers, Opbends and 1-4
 FORCEFIELD| All missing parameters will not contribute to the potential energy!
 FORCEFIELD| Activate the print key FF_INFO to have a list of missing parameters

 CHARGE_INFO| Total Charge of the Classical System:                    -0.825808

 SPLINE_INFO| Generating 101926 splines for NONBONDED14 interactions 
              Due to 451 different atomic kinds
  ...10192  ...20384  ...30576  ...40768  ...50960  ...61152  ...71344  ...81536  ...91728  ...101920
 SPLINE_INFO| Number of unique splines computed:            301
 SPLINE_INFO| Done

 SPLINE_INFO| Generating 101926 splines for NONBONDED interactions 
              Due to 451 different atomic kinds
  ...10192  ...20384  ...30576  ...40768  ...50960  ...61152  ...71344  ...81536  ...91728  ...101920
 SPLINE_INFO| Number of unique splines computed:            301
 SPLINE_INFO| Done

 *******************************************************************************
 *******************************************************************************
 **                                                                           **
 **     #####                         ##              ##                      **
 **    ##   ##            ##          ##              ##                      **
 **   ##     ##                       ##            ######                    **
 **   ##     ##  ##   ##  ##   #####  ##  ##   ####   ##    #####    #####    **
 **   ##     ##  ##   ##  ##  ##      ## ##   ##      ##   ##   ##  ##   ##   **
 **   ##  ## ##  ##   ##  ##  ##      ####     ###    ##   ######   ######    **
 **    ##  ###   ##   ##  ##  ##      ## ##      ##   ##   ##       ##        **
 **     #######   #####   ##   #####  ##  ##  ####    ##    #####   ##        **
 **           ##                                                    ##        **
 **                                                                           **
 **                                                ... make the atoms dance   **
 **                                                                           **
 **            Copyright (C) by CP2K developers group (2000-2021)             **
 **                      J. Chem. Phys. 152, 194103 (2020)                    **
 **                                                                           **
 *******************************************************************************


 TOTAL NUMBERS AND MAXIMUM NUMBERS

  Total number of            - Atomic kinds:                                   5
                             - Atoms:                                         68
                             - Shell sets:                                   340
                             - Shells:                                       445
                             - Primitive Cartesian functions:                476
                             - Cartesian basis functions:                   1137
                             - Spherical basis functions:                   1067

  Maximum angular momentum of- Orbital basis functions:                        2
                             - Local part of the GTH pseudopotential:          2
                             - Non-local part of the GTH pseudopotential:      0


 SCF PARAMETERS         Density guess:                                   RESTART
                        --------------------------------------------------------
                        max_scf:                                              30
                        max_scf_history:                                       0
                        max_diis:                                              4
                        --------------------------------------------------------
                        eps_scf:                                        1.00E-06
                        eps_scf_history:                                0.00E+00
                        eps_diis:                                       1.00E-01
                        eps_eigval:                                     1.00E-05
                        --------------------------------------------------------
                        level_shift [a.u.]:                                 0.00
                        --------------------------------------------------------
                        Outer loop SCF in use 
                        No variables optimised in outer loop
                        eps_scf                                         1.00E-06
                        max_scf                                               20
                        No outer loop optimization
                        step_size                                       5.00E-01

 *******************************************************************************
 *******************************************************************************
 **                                                                           **
 **             #######  ##     ## ##     ## ##     ##                        **
 **            ##     ## ###   ### ###   ### ###   ###                        **
 **            ##     ## #### #### #### #### #### ####                        **
 **            ##     ## ## ### ## ## ### ## ## ### ##                        **
 **            ##  ## ## ##     ## ##     ## ##     ##                        **
 **            ##    ##  ##     ## ##     ## ##     ##  T.Laino and F.Mohamed **
 **             ##### ## ##     ## ##     ## ##     ##  2005 - 2015           **
 **                                                                           **
 **                                                     Calculation Started.. **
 *******************************************************************************
 *******************************************************************************

 MD_PAR| Molecular dynamics protocol (MD input parameters)
 MD_PAR| Ensemble type                                                       NVE
 MD_PAR| Number of time steps                                                  6
 MD_PAR| Time step [fs]                                                 1.000000
 MD_PAR| Temperature [K]                                              300.000000
 MD_PAR| Temperature tolerance [K]                                      0.000000
 MD_PAR| Print MD information every                                    1 step(s)
 MD_PAR| File type   Print frequency [steps]                          File names
 MD_PAR| Coordinates          1                           CBD_PHY-PBE0-pos-1.xyz
 MD_PAR| Velocities           1                           CBD_PHY-PBE0-vel-1.xyz
 MD_PAR| Energies             1                              CBD_PHY-PBE0-1.ener
 MD_PAR| Dump                20                           CBD_PHY-PBE0-1.restart

 ROT| Rotational analysis information
 ROT| Principal axes and moments of inertia [a.u.]
 ROT|                           1                   2                   3
 ROT| Eigenvalues      1.56283164001E+13   1.56407408488E+13   1.56663418804E+13
 ROT|      x              0.901637047331     -0.018153263569      0.432112362589
 ROT|      y              0.323714777231      0.690893927917     -0.646431994388
 ROT|      z             -0.286808957117      0.722728191915      0.628812040859
 ROT| Number of rotovibrational vectors                                        6

 DOF| Calculation of degrees of freedom
 DOF| Number of atoms                                                     167923
 DOF| Number of intramolecular constraints                                     0
 DOF| Number of intermolecular constraints                                     0
 DOF| Invariants (translations + rotations)                                    3
 DOF| Degrees of freedom                                                  503766

 DOF| Restraints information
 DOF| Number of intramolecular restraints                                      0
 DOF| Number of intermolecular restraints                                      0

 MD_VEL| Velocities initialization
 MD_VEL| Initial temperature [K]                                      300.000000
 MD_VEL| COM velocity            -0.0000000000     0.0000000000     0.0000000000

  Translating the system in order to center the QM fragment in the QM box.

 Number of electrons:                                                        180
 Number of occupied orbitals:                                                 90
 Number of molecular orbitals:                                                90

 Number of orbital functions:                                               1067
 Number of independent orbital functions:                                   1067

 Extrapolation method: initial_guess


 SCF WAVEFUNCTION OPTIMIZATION

  ----------------------------------- OT ---------------------------------------
  Minimizer      : DIIS                : direct inversion
                                         in the iterative subspace
                                         using   7 DIIS vectors
                                         safer DIIS on
  Preconditioner : FULL_ALL            : diagonalization, state selective
  Precond_solver : DEFAULT
  stepsize       :    0.15000000                  energy_gap     :    0.08000000
  eps_taylor     :   0.10000E-15                  max_taylor     :             4
  ----------------------------------- OT ---------------------------------------

  Step     Update method      Time    Convergence         Total energy    Change
  ------------------------------------------------------------------------------
  Decoupling Energy:                                               0.0370647021
  Recoupling Energy:                                              -0.0063741479
     1 OT DIIS     0.15E+00   13.9     0.00129057      -255.9257316521 -2.56E+02
  Decoupling Energy:                                               0.0370576004
  Recoupling Energy:                                              -0.0063740314
     2 OT DIIS     0.15E+00    2.3     0.00057761      -255.9419521977 -1.62E-02
  Decoupling Energy:                                               0.0369596417
  Recoupling Energy:                                              -0.0063730135
     3 OT DIIS     0.15E+00    2.2     0.00038348      -255.9451217318 -3.17E-03
  Decoupling Energy:                                               0.0369795470
  Recoupling Energy:                                              -0.0063732416
     4 OT DIIS     0.15E+00    2.3     0.00009866      -255.9458275769 -7.06E-04
  Decoupling Energy:                                               0.0369716948
  Recoupling Energy:                                              -0.0063731487
     5 OT DIIS     0.15E+00    2.3     0.00003992      -255.9458779686 -5.04E-05
  Decoupling Energy:                                               0.0369737640
  Recoupling Energy:                                              -0.0063731649
     6 OT DIIS     0.15E+00    2.3     0.00001793      -255.9458894170 -1.14E-05
  Decoupling Energy:                                               0.0369741808
  Recoupling Energy:                                              -0.0063731680
     7 OT DIIS     0.15E+00    2.3     0.00000621      -255.9458922938 -2.88E-06
  Decoupling Energy:                                               0.0369727127
  Recoupling Energy:                                              -0.0063731518
     8 OT DIIS     0.15E+00    2.2     0.00000242      -255.9458926328 -3.39E-07
  Decoupling Energy:                                               0.0369731061
  Recoupling Energy:                                              -0.0063731556
     9 OT DIIS     0.15E+00    2.3     0.00000111      -255.9458926822 -4.94E-08
  Decoupling Energy:                                               0.0369728228
  Recoupling Energy:                                              -0.0063731526
    10 OT DIIS     0.15E+00    2.3     0.00000048      -255.9458926924 -1.02E-08

  *** SCF run converged in    10 steps ***


  Electronic density on regular grids:       -179.9999999999        0.0000000001
  Core density on regular grids:              180.9999999999       -0.0000000001
  Total charge density on r-space grids:        1.0000000000
  Total charge density g-space grids:           1.0000000000

  Overlap energy of the core charge distribution:               0.00001951532734
  Self energy of the core charge distribution:               -615.71576003586028
  Core Hamiltonian energy:                                    191.01363220818018
  Hartree energy:                                             248.20663869015547
  Exchange-correlation energy:                                -61.38430761263392
  Hartree-Fock Exchange energy:                               -18.10821018492832
  QM/MM Electrostatic energy:                                   0.04209472735389

  Total energy:                                              -255.94589269240564

  outer SCF iter =    1 RMS gradient =   0.48E-06 energy =       -255.9458926924
  outer SCF loop converged in   1 iterations or   10 steps

  Decoupling Energy:                                               0.0369728028
  Recoupling Energy:                                              -0.0063731523

 ENERGY| Total FORCE_EVAL ( QMMM ) energy [a.u.]:          -1088.110859624614250

 MD_INI| MD initialization
 MD_INI| Potential energy [hartree]                          -0.108811085962E+04
 MD_INI| Total kinetic energy [hartree]                       0.239300084734E+03
 MD_INI| QM kinetic energy [hartree]                          0.106639360339E+00
 MD_INI| Total temperature [K]                                        300.000000
 MD_INI| QM temperature [K]                                           330.137318
 MD_INI| Cell volume [bohr^3]                                 1.137316355424E+07
 MD_INI| Cell volume [ang^3]                                  1.685328937712E+06
 MD_INI| Cell lengths [bohr]      2.24884969E+02  2.24884969E+02  2.24884969E+02
 MD_INI| Cell lengths [ang]       1.19004000E+02  1.19004000E+02  1.19004000E+02
 MD_INI| Cell angles [deg]        9.00000000E+01  9.00000000E+01  9.00000000E+01

  Translating the system in order to center the QM fragment in the QM box.

 Number of electrons:                                                        180
 Number of occupied orbitals:                                                 90
 Number of molecular orbitals:                                                90

 Number of orbital functions:                                               1067
 Number of independent orbital functions:                                   1067

 Extrapolation method: ASPC


 SCF WAVEFUNCTION OPTIMIZATION

  ----------------------------------- OT ---------------------------------------
  Minimizer      : DIIS                : direct inversion
                                         in the iterative subspace
                                         using   7 DIIS vectors
                                         safer DIIS on
  Preconditioner : FULL_ALL            : diagonalization, state selective
  Precond_solver : DEFAULT
  stepsize       :    0.15000000                  energy_gap     :    0.08000000
  eps_taylor     :   0.10000E-15                  max_taylor     :             4
  ----------------------------------- OT ---------------------------------------

  Step     Update method      Time    Convergence         Total energy    Change
  ------------------------------------------------------------------------------
  Decoupling Energy:                                               0.0370014667
  Recoupling Energy:                                              -0.0063734172
     1 OT DIIS     0.15E+00    9.1     0.00075899      -255.7182133756 -2.56E+02
  Decoupling Energy:                                               0.0370082386
  Recoupling Energy:                                              -0.0063735355
     2 OT DIIS     0.15E+00    2.4     0.00032685      -255.7237312546 -5.52E-03
  Decoupling Energy:                                               0.0370087411
  Recoupling Energy:                                              -0.0063735590
     3 OT DIIS     0.15E+00    2.2     0.00019068      -255.7247685853 -1.04E-03
  Decoupling Energy:                                               0.0370199883
  Recoupling Energy:                                              -0.0063736817
     4 OT DIIS     0.15E+00    2.2     0.00006054      -255.7249610225 -1.92E-04
  Decoupling Energy:                                               0.0370216763
  Recoupling Energy:                                              -0.0063737045
     5 OT DIIS     0.15E+00    2.2     0.00001954      -255.7249775873 -1.66E-05
  Decoupling Energy:                                               0.0370210005
  Recoupling Energy:                                              -0.0063736984
     6 OT DIIS     0.15E+00    2.2     0.00000817      -255.7249798456 -2.26E-06
  Decoupling Energy:                                               0.0370221929
  Recoupling Energy:                                              -0.0063737124
     7 OT DIIS     0.15E+00    2.3     0.00000308      -255.7249803077 -4.62E-07
  Decoupling Energy:                                               0.0370222382
  Recoupling Energy:                                              -0.0063737132
     8 OT DIIS     0.15E+00    2.3     0.00000136      -255.7249803849 -7.72E-08
  Decoupling Energy:                                               0.0370224659
  Recoupling Energy:                                              -0.0063737159
     9 OT DIIS     0.15E+00    2.2     0.00000058      -255.7249804006 -1.57E-08

  *** SCF run converged in     9 steps ***


  Electronic density on regular grids:       -180.0000000000        0.0000000000
  Core density on regular grids:              180.9999999999       -0.0000000001
  Total charge density on r-space grids:        0.9999999999
  Total charge density g-space grids:           0.9999999999

  Overlap energy of the core charge distribution:               0.00002422739645
  Self energy of the core charge distribution:               -615.71576003586028
  Core Hamiltonian energy:                                    191.21094997616541
  Hartree energy:                                             248.07774809172571
  Exchange-correlation energy:                                -61.42683491676344
  Hartree-Fock Exchange energy:                               -18.12283148040590
  QM/MM Electrostatic energy:                                   0.25172373710388

  Total energy:                                              -255.72498040063815

  outer SCF iter =    1 RMS gradient =   0.58E-06 energy =       -255.7249804006
  outer SCF loop converged in   1 iterations or    9 steps

  Decoupling Energy:                                               0.0370224944
  Recoupling Energy:                                              -0.0063737164

 ENERGY| Total FORCE_EVAL ( QMMM ) energy [a.u.]:          -1059.962356570460088

 MD| ***************************************************************************
 MD| Step number                                                               1
 MD| Time [fs]                                                          1.000000
 MD| Conserved quantity [hartree]                            -0.841461427182E+03
 MD| ---------------------------------------------------------------------------
 MD|                                          Instantaneous             Averages
 MD| CPU time per MD step [s]                    162.125880           162.125880
 MD| Energy drift per atom [K]           0.138202490725E+02   0.000000000000E+00
 MD| Potential energy [hartree]         -0.105996235657E+04  -0.105996235657E+04
 MD| Total kinetic energy [hartree]      0.218500929388E+03   0.218500929388E+03
 MD| QM kinetic energy [hartree]         0.121347263507E+00   0.121347263507E+00
 MD| Total temperature [K]                       273.925013           273.925013
 MD| QM temperature [K]                          375.670484           375.670484
 MD| ***************************************************************************

  Translating the system in order to center the QM fragment in the QM box.

 Number of electrons:                                                        180
 Number of occupied orbitals:                                                 90
 Number of molecular orbitals:                                                90

 Number of orbital functions:                                               1067
 Number of independent orbital functions:                                   1067

 Extrapolation method: ASPC


 SCF WAVEFUNCTION OPTIMIZATION

  ----------------------------------- OT ---------------------------------------
  Minimizer      : DIIS                : direct inversion
                                         in the iterative subspace
                                         using   7 DIIS vectors
                                         safer DIIS on
  Preconditioner : FULL_ALL            : diagonalization, state selective
  Precond_solver : DEFAULT
  stepsize       :    0.15000000                  energy_gap     :    0.08000000
  eps_taylor     :   0.10000E-15                  max_taylor     :             4
  ----------------------------------- OT ---------------------------------------

  Step     Update method      Time    Convergence         Total energy    Change
  ------------------------------------------------------------------------------
  Decoupling Energy:                                               0.0370781908
  Recoupling Energy:                                              -0.0063743357
     1 OT DIIS     0.15E+00    8.9     0.00029256      -255.3622521422 -2.55E+02
  Decoupling Energy:                                               0.0370714458
  Recoupling Energy:                                              -0.0063742686
     2 OT DIIS     0.15E+00    2.3     0.00012380      -255.3630879347 -8.36E-04
  Decoupling Energy:                                               0.0370747194
  Recoupling Energy:                                              -0.0063743003
     3 OT DIIS     0.15E+00    2.2     0.00005679      -255.3632552575 -1.67E-04
  Decoupling Energy:                                               0.0370720761
  Recoupling Energy:                                              -0.0063742776
     4 OT DIIS     0.15E+00    2.2     0.00001757      -255.3632740529 -1.88E-05
  Decoupling Energy:                                               0.0370725470
  Recoupling Energy:                                              -0.0063742816
     5 OT DIIS     0.15E+00    2.2     0.00000682      -255.3632755801 -1.53E-06
  Decoupling Energy:                                               0.0370729642
  Recoupling Energy:                                              -0.0063742866
     6 OT DIIS     0.15E+00    2.3     0.00000313      -255.3632758379 -2.58E-07
  Decoupling Energy:                                               0.0370729490
  Recoupling Energy:                                              -0.0063742866
     7 OT DIIS     0.15E+00    2.3     0.00000105      -255.3632758989 -6.10E-08
  Decoupling Energy:                                               0.0370730069
  Recoupling Energy:                                              -0.0063742873
     8 OT DIIS     0.15E+00    2.2     0.00000048      -255.3632759090 -1.02E-08

  *** SCF run converged in     8 steps ***


  Electronic density on regular grids:       -180.0000000000       -0.0000000000
  Core density on regular grids:              180.9999999999       -0.0000000001
  Total charge density on r-space grids:        0.9999999998
  Total charge density g-space grids:           0.9999999998

  Overlap energy of the core charge distribution:               0.00005088933909
  Self energy of the core charge distribution:               -615.71576003586028
  Core Hamiltonian energy:                                    191.44418750370562
  Hartree energy:                                             247.94136572307312
  Exchange-correlation energy:                                -61.47332481562049
  Hartree-Fock Exchange energy:                               -18.13880650647884
  QM/MM Electrostatic energy:                                   0.57901133283238

  Total energy:                                              -255.36327590900933

  outer SCF iter =    1 RMS gradient =   0.48E-06 energy =       -255.3632759090
  outer SCF loop converged in   1 iterations or    8 steps

  Decoupling Energy:                                               0.0370730236
  Recoupling Energy:                                              -0.0063742875

 ENERGY| Total FORCE_EVAL ( QMMM ) energy [a.u.]:          -1061.235329268124133

 MD| ***************************************************************************
 MD| Step number                                                               2
 MD| Time [fs]                                                          2.000000
 MD| Conserved quantity [hartree]                            -0.842817774813E+03
 MD| ---------------------------------------------------------------------------
 MD|                                          Instantaneous             Averages
 MD| CPU time per MD step [s]                     73.715329           117.920604
 MD| Energy drift per atom [K]           0.112696741326E+02   0.563483706629E+01
 MD| Potential energy [hartree]         -0.106123532927E+04  -0.106059884292E+04
 MD| Total kinetic energy [hartree]      0.218417554455E+03   0.218459241922E+03
 MD| QM kinetic energy [hartree]         0.111577930199E+00   0.116462596853E+00
 MD| Total temperature [K]                       273.820489           273.872751
 MD| QM temperature [K]                          345.426290           360.548387
 MD| ***************************************************************************

  Translating the system in order to center the QM fragment in the QM box.

 Number of electrons:                                                        180
 Number of occupied orbitals:                                                 90
 Number of molecular orbitals:                                                90

 Number of orbital functions:                                               1067
 Number of independent orbital functions:                                   1067

 Extrapolation method: ASPC


 SCF WAVEFUNCTION OPTIMIZATION

  ----------------------------------- OT ---------------------------------------
  Minimizer      : DIIS                : direct inversion
                                         in the iterative subspace
                                         using   7 DIIS vectors
                                         safer DIIS on
  Preconditioner : FULL_ALL            : diagonalization, state selective
  Precond_solver : DEFAULT
  stepsize       :    0.15000000                  energy_gap     :    0.08000000
  eps_taylor     :   0.10000E-15                  max_taylor     :             4
  ----------------------------------- OT ---------------------------------------

  Step     Update method      Time    Convergence         Total energy    Change
  ------------------------------------------------------------------------------
  Decoupling Energy:                                               0.0371231600
  Recoupling Energy:                                              -0.0063748341
     1 OT DIIS     0.15E+00    8.7     0.00057312      -254.8840265924 -2.55E+02
  Decoupling Energy:                                               0.0371264028
  Recoupling Energy:                                              -0.0063748790
     2 OT DIIS     0.15E+00    2.3     0.00022567      -254.8871525059 -3.13E-03
  Decoupling Energy:                                               0.0371270745
  Recoupling Energy:                                              -0.0063748845
     3 OT DIIS     0.15E+00    2.2     0.00008228      -254.8877078844 -5.55E-04
  Decoupling Energy:                                               0.0371223373
  Recoupling Energy:                                              -0.0063748374
     4 OT DIIS     0.15E+00    2.2     0.00002753      -254.8877581095 -5.02E-05
  Decoupling Energy:                                               0.0371233195
  Recoupling Energy:                                              -0.0063748479
     5 OT DIIS     0.15E+00    2.3     0.00001038      -254.8877619120 -3.80E-06
  Decoupling Energy:                                               0.0371231634
  Recoupling Energy:                                              -0.0063748451
     6 OT DIIS     0.15E+00    2.2     0.00000440      -254.8877624983 -5.86E-07
  Decoupling Energy:                                               0.0371230843
  Recoupling Energy:                                              -0.0063748446
     7 OT DIIS     0.15E+00    2.3     0.00000136      -254.8877625887 -9.05E-08
  Decoupling Energy:                                               0.0371230867
  Recoupling Energy:                                              -0.0063748447
     8 OT DIIS     0.15E+00    2.2     0.00000059      -254.8877625996 -1.08E-08

  *** SCF run converged in     8 steps ***


  Electronic density on regular grids:       -180.0000000003       -0.0000000003
  Core density on regular grids:              180.9999999999       -0.0000000001
  Total charge density on r-space grids:        0.9999999996
  Total charge density g-space grids:           0.9999999996

  Overlap energy of the core charge distribution:               0.00005124466605
  Self energy of the core charge distribution:               -615.71576003586028
  Core Hamiltonian energy:                                    191.49125422993876
  Hartree energy:                                             247.90728404250009
  Exchange-correlation energy:                                -61.48094631033330
  Hartree-Fock Exchange energy:                               -18.14140164828462
  QM/MM Electrostatic energy:                                   1.05175587778413

  Total energy:                                              -254.88776259958922

  outer SCF iter =    1 RMS gradient =   0.59E-06 energy =       -254.8877625996
  outer SCF loop converged in   1 iterations or    8 steps

  Decoupling Energy:                                               0.0371230864
  Recoupling Energy:                                              -0.0063748446

 ENERGY| Total FORCE_EVAL ( QMMM ) energy [a.u.]:          -1082.045340810709376

 MD| ***************************************************************************
 MD| Step number                                                               3
 MD| Time [fs]                                                          3.000000
 MD| Conserved quantity [hartree]                            -0.846392350205E+03
 MD| ---------------------------------------------------------------------------
 MD|                                          Instantaneous             Averages
 MD| CPU time per MD step [s]                     74.951117           103.597442
 MD| Energy drift per atom [K]           0.454778204059E+01   0.527248539106E+01
 MD| Potential energy [hartree]         -0.108204534081E+04  -0.106774767555E+04
 MD| Total kinetic energy [hartree]      0.235652990606E+03   0.224190491483E+03
 MD| QM kinetic energy [hartree]         0.117356396094E+00   0.116760529933E+00
 MD| Total temperature [K]                       295.427798           281.057767
 MD| QM temperature [K]                          363.315438           361.470738
 MD| ***************************************************************************

  Translating the system in order to center the QM fragment in the QM box.

 Number of electrons:                                                        180
 Number of occupied orbitals:                                                 90
 Number of molecular orbitals:                                                90

 Number of orbital functions:                                               1067
 Number of independent orbital functions:                                   1067

 Extrapolation method: ASPC


 SCF WAVEFUNCTION OPTIMIZATION

  ----------------------------------- OT ---------------------------------------
  Minimizer      : DIIS                : direct inversion
                                         in the iterative subspace
                                         using   7 DIIS vectors
                                         safer DIIS on
  Preconditioner : FULL_ALL            : diagonalization, state selective
  Precond_solver : DEFAULT
  stepsize       :    0.15000000                  energy_gap     :    0.08000000
  eps_taylor     :   0.10000E-15                  max_taylor     :             4
  ----------------------------------- OT ---------------------------------------

  Step     Update method      Time    Convergence         Total energy    Change
  ------------------------------------------------------------------------------
  Decoupling Energy:                                               0.0371654098
  Recoupling Energy:                                              -0.0063753275
     1 OT DIIS     0.15E+00    8.8     0.00026632      -254.3373046356 -2.54E+02
  Decoupling Energy:                                               0.0371742591
  Recoupling Energy:                                              -0.0063754100
     2 OT DIIS     0.15E+00    2.3     0.00010680      -254.3379936601 -6.89E-04
  Decoupling Energy:                                               0.0371690996
  Recoupling Energy:                                              -0.0063753567
     3 OT DIIS     0.15E+00    2.3     0.00003994      -254.3381215417 -1.28E-04
  Decoupling Energy:                                               0.0371714885
  Recoupling Energy:                                              -0.0063753814
     4 OT DIIS     0.15E+00    2.3     0.00001265      -254.3381313956 -9.85E-06
  Decoupling Energy:                                               0.0371702613
  Recoupling Energy:                                              -0.0063753693
     5 OT DIIS     0.15E+00    2.3     0.00000535      -254.3381322338 -8.38E-07
  Decoupling Energy:                                               0.0371705287
  Recoupling Energy:                                              -0.0063753714
     6 OT DIIS     0.15E+00    2.2     0.00000188      -254.3381323700 -1.36E-07
  Decoupling Energy:                                               0.0371705448
  Recoupling Energy:                                              -0.0063753718
     7 OT DIIS     0.15E+00    2.3     0.00000064      -254.3381323884 -1.84E-08

  *** SCF run converged in     7 steps ***


  Electronic density on regular grids:       -179.9999999999        0.0000000001
  Core density on regular grids:              180.9999999999       -0.0000000001
  Total charge density on r-space grids:        1.0000000000
  Total charge density g-space grids:           1.0000000000

  Overlap energy of the core charge distribution:               0.00002358467770
  Self energy of the core charge distribution:               -615.71576003586028
  Core Hamiltonian energy:                                    191.34733600223041
  Hartree energy:                                             247.97608916641752
  Exchange-correlation energy:                                -61.44937168742296
  Hartree-Fock Exchange energy:                               -18.13041964680647
  QM/MM Electrostatic energy:                                   1.63397022837872

  Total energy:                                              -254.33813238838536

  outer SCF iter =    1 RMS gradient =   0.64E-06 energy =       -254.3381323884
  outer SCF loop converged in   1 iterations or    7 steps

  Decoupling Energy:                                               0.0371704733
  Recoupling Energy:                                              -0.0063753710

 ENERGY| Total FORCE_EVAL ( QMMM ) energy [a.u.]:          -1079.714053876817616

 MD| ***************************************************************************
 MD| Step number                                                               4
 MD| Time [fs]                                                          4.000000
 MD| Conserved quantity [hartree]                            -0.842113596348E+03
 MD| ---------------------------------------------------------------------------
 MD|                                          Instantaneous             Averages
 MD| CPU time per MD step [s]                     71.605504            95.599457
 MD| Energy drift per atom [K]           0.125938626406E+02   0.710282970344E+01
 MD| Potential energy [hartree]         -0.107971405388E+04  -0.107073927013E+04
 MD| Total kinetic energy [hartree]      0.237600457529E+03   0.227542982994E+03
 MD| QM kinetic energy [hartree]         0.148329421084E+00   0.124652752721E+00
 MD| Total temperature [K]                       297.869252           285.260638
 MD| QM temperature [K]                          459.202654           385.903717
 MD| ***************************************************************************

  Translating the system in order to center the QM fragment in the QM box.

 Number of electrons:                                                        180
 Number of occupied orbitals:                                                 90
 Number of molecular orbitals:                                                90

 Number of orbital functions:                                               1067
 Number of independent orbital functions:                                   1067

 Extrapolation method: ASPC


 SCF WAVEFUNCTION OPTIMIZATION

  ----------------------------------- OT ---------------------------------------
  Minimizer      : DIIS                : direct inversion
                                         in the iterative subspace
                                         using   7 DIIS vectors
                                         safer DIIS on
  Preconditioner : FULL_ALL            : diagonalization, state selective
  Precond_solver : DEFAULT
  stepsize       :    0.15000000                  energy_gap     :    0.08000000
  eps_taylor     :   0.10000E-15                  max_taylor     :             4
  ----------------------------------- OT ---------------------------------------

  Step     Update method      Time    Convergence         Total energy    Change
  ------------------------------------------------------------------------------
  Decoupling Energy:                                               0.0372103184
  Recoupling Energy:                                              -0.0063758463
     1 OT DIIS     0.15E+00    8.8     0.00032129      -253.7449327223 -2.54E+02
  Decoupling Energy:                                               0.0372071274
  Recoupling Energy:                                              -0.0063758011
     2 OT DIIS     0.15E+00    2.3     0.00013158      -253.7458498937 -9.17E-04
  Decoupling Energy:                                               0.0372094580
  Recoupling Energy:                                              -0.0063758225
     3 OT DIIS     0.15E+00    2.2     0.00006228      -253.7460085461 -1.59E-04
  Decoupling Energy:                                               0.0372087712
  Recoupling Energy:                                              -0.0063758150
     4 OT DIIS     0.15E+00    2.3     0.00002421      -253.7460396263 -3.11E-05
  Decoupling Energy:                                               0.0372096209
  Recoupling Energy:                                              -0.0063758219
     5 OT DIIS     0.15E+00    2.2     0.00000522      -253.7460421357 -2.51E-06
  Decoupling Energy:                                               0.0372093063
  Recoupling Energy:                                              -0.0063758193
     6 OT DIIS     0.15E+00    2.2     0.00000250      -253.7460422786 -1.43E-07
  Decoupling Energy:                                               0.0372093058
  Recoupling Energy:                                              -0.0063758191
     7 OT DIIS     0.15E+00    2.2     0.00000089      -253.7460423104 -3.18E-08

  *** SCF run converged in     7 steps ***


  Electronic density on regular grids:       -180.0000000000       -0.0000000000
  Core density on regular grids:              180.9999999999       -0.0000000001
  Total charge density on r-space grids:        0.9999999998
  Total charge density g-space grids:           0.9999999998

  Overlap energy of the core charge distribution:               0.00001841789345
  Self energy of the core charge distribution:               -615.71576003586028
  Core Hamiltonian energy:                                    191.22474888462284
  Hartree energy:                                             248.04794832188682
  Exchange-correlation energy:                                -61.41799248048523
  Hartree-Fock Exchange energy:                               -18.11952385770642
  QM/MM Electrostatic energy:                                   2.23451843927910

  Total energy:                                              -253.74604231036972

  outer SCF iter =    1 RMS gradient =   0.89E-06 energy =       -253.7460423104
  outer SCF loop converged in   1 iterations or    7 steps

  Decoupling Energy:                                               0.0372093343
  Recoupling Energy:                                              -0.0063758194

 ENERGY| Total FORCE_EVAL ( QMMM ) energy [a.u.]:          -1094.307011647045329

 MD| ***************************************************************************
 MD| Step number                                                               5
 MD| Time [fs]                                                          5.000000
 MD| Conserved quantity [hartree]                            -0.848389415571E+03
 MD| ---------------------------------------------------------------------------
 MD|                                          Instantaneous             Averages
 MD| CPU time per MD step [s]                     72.697173            91.019000
 MD| Energy drift per atom [K]           0.792354774734E+00   0.584073471770E+01
 MD| Potential energy [hartree]         -0.109430701165E+04  -0.107545281843E+04
 MD| Total kinetic energy [hartree]      0.245917596076E+03   0.231217905611E+03
 MD| QM kinetic energy [hartree]         0.157565896205E+00   0.131235381418E+00
 MD| Total temperature [K]                       308.296083           289.867727
 MD| QM temperature [K]                          487.797210           406.282415
 MD| ***************************************************************************

  Translating the system in order to center the QM fragment in the QM box.

 Number of electrons:                                                        180
 Number of occupied orbitals:                                                 90
 Number of molecular orbitals:                                                90

 Number of orbital functions:                                               1067
 Number of independent orbital functions:                                   1067

 Extrapolation method: ASPC


 SCF WAVEFUNCTION OPTIMIZATION

  ----------------------------------- OT ---------------------------------------
  Minimizer      : DIIS                : direct inversion
                                         in the iterative subspace
                                         using   7 DIIS vectors
                                         safer DIIS on
  Preconditioner : FULL_ALL            : diagonalization, state selective
  Precond_solver : DEFAULT
  stepsize       :    0.15000000                  energy_gap     :    0.08000000
  eps_taylor     :   0.10000E-15                  max_taylor     :             4
  ----------------------------------- OT ---------------------------------------

  Step     Update method      Time    Convergence         Total energy    Change
  ------------------------------------------------------------------------------
  Decoupling Energy:                                               0.0372437674
  Recoupling Energy:                                              -0.0063762141
     1 OT DIIS     0.15E+00    8.8     0.00048892      -253.1925245833 -2.53E+02
  Decoupling Energy:                                               0.0372422543
  Recoupling Energy:                                              -0.0063762299
     2 OT DIIS     0.15E+00    2.3     0.00019188      -253.1946670064 -2.14E-03
  Decoupling Energy:                                               0.0372394402
  Recoupling Energy:                                              -0.0063761924
     3 OT DIIS     0.15E+00    2.2     0.00008061      -253.1950231531 -3.56E-04
  Decoupling Energy:                                               0.0372400034
  Recoupling Energy:                                              -0.0063762003
     4 OT DIIS     0.15E+00    2.2     0.00002233      -253.1950819310 -5.88E-05
  Decoupling Energy:                                               0.0372387566
  Recoupling Energy:                                              -0.0063761866
     5 OT DIIS     0.15E+00    2.2     0.00000831      -253.1950844817 -2.55E-06
  Decoupling Energy:                                               0.0372394960
  Recoupling Energy:                                              -0.0063761930
     6 OT DIIS     0.15E+00    2.2     0.00000288      -253.1950848350 -3.53E-07
  Decoupling Energy:                                               0.0372392384
  Recoupling Energy:                                              -0.0063761906
     7 OT DIIS     0.15E+00    2.2     0.00000087      -253.1950848754 -4.04E-08

  *** SCF run converged in     7 steps ***


  Electronic density on regular grids:       -180.0000000000       -0.0000000000
  Core density on regular grids:              180.9999999999       -0.0000000001
  Total charge density on r-space grids:        0.9999999998
  Total charge density g-space grids:           0.9999999998

  Overlap energy of the core charge distribution:               0.00001843289151
  Self energy of the core charge distribution:               -615.71576003586028
  Core Hamiltonian energy:                                    191.21897891902697
  Hartree energy:                                             248.05851289377088
  Exchange-correlation energy:                                -61.40903380288696
  Hartree-Fock Exchange energy:                               -18.11645591287698
  QM/MM Electrostatic energy:                                   2.76865463051673

  Total energy:                                              -253.19508487541816

  outer SCF iter =    1 RMS gradient =   0.87E-06 energy =       -253.1950848754
  outer SCF loop converged in   1 iterations or    7 steps

  Decoupling Energy:                                               0.0372392239
  Recoupling Energy:                                              -0.0063761903

 ENERGY| Total FORCE_EVAL ( QMMM ) energy [a.u.]:          -1057.339964947843782

 MD| ***************************************************************************
 MD| Step number                                                               6
 MD| Time [fs]                                                          6.000000
 MD| Conserved quantity [hartree]                            -0.842900323511E+03
 MD| ---------------------------------------------------------------------------
 MD|                                          Instantaneous             Averages
 MD| CPU time per MD step [s]                     71.423026            87.753005
 MD| Energy drift per atom [K]           0.111144435442E+02   0.671968618878E+01
 MD| Potential energy [hartree]         -0.105733996495E+04  -0.107243400952E+04
 MD| Total kinetic energy [hartree]      0.214439641437E+03   0.228421528248E+03
 MD| QM kinetic energy [hartree]         0.141133121982E+00   0.132885004845E+00
 MD| Total temperature [K]                       268.833555           286.362032
 MD| QM temperature [K]                          436.924136           411.389369
 MD| ***************************************************************************

 -------------------------------------------------------------------------------
 -                                                                             -
 -                                DBCSR STATISTICS                             -
 -                                                                             -
 -------------------------------------------------------------------------------
 COUNTER                                    TOTAL       BLAS       SMM       ACC
 flops    26 x    26 x    26             13709280     100.0%      0.0%      0.0%
 flops    22 x    26 x    26             15615600     100.0%      0.0%      0.0%
 flops    22 x    26 x    32             20500480     100.0%      0.0%      0.0%
 flops    22 x    32 x    26             20500480     100.0%      0.0%      0.0%
 flops     9 x    26 x    26             23253048     100.0%      0.0%      0.0%
 flops    40 x    26 x    26             30284800     100.0%      0.0%      0.0%
 flops    26 x    26 x    32             33745920     100.0%      0.0%      0.0%
 flops    26 x    32 x    26             33745920     100.0%      0.0%      0.0%
 flops    32 x    26 x    26             33745920     100.0%      0.0%      0.0%
 flops    22 x    26 x   261             37621584     100.0%      0.0%      0.0%
 flops    22 x    26 x   266             38342304     100.0%      0.0%      0.0%
 flops     9 x    32 x    26             50319360     100.0%      0.0%      0.0%
 flops     9 x    26 x    32             50319360     100.0%      0.0%      0.0%
 flops    22 x    32 x    32             72540160     100.0%      0.0%      0.0%
 flops    40 x    32 x    26             74547200     100.0%      0.0%      0.0%
 flops    40 x    26 x    32             74547200     100.0%      0.0%      0.0%
 flops    22 x    26 x   270             77837760     100.0%      0.0%      0.0%
 flops    26 x    26 x   261             81513432     100.0%      0.0%      0.0%
 flops    32 x    32 x    26             83066880     100.0%      0.0%      0.0%
 flops    26 x    32 x    32             83066880     100.0%      0.0%      0.0%
 flops    32 x    26 x    32             83066880     100.0%      0.0%      0.0%
 flops    26 x    26 x   266             83074992     100.0%      0.0%      0.0%
 flops     9 x    26 x   261             92343888     100.0%      0.0%      0.0%
 flops    22 x    32 x   261             92606976     100.0%      0.0%      0.0%
 flops     9 x    26 x   266             94112928     100.0%      0.0%      0.0%
 flops    22 x    32 x   266             94381056     100.0%      0.0%      0.0%
 flops    53 x    26 x    26            100318400     100.0%      0.0%      0.0%
 flops    31 x    26 x    26            117353600     100.0%      0.0%      0.0%
 flops     9 x    32 x    32            132378624     100.0%      0.0%      0.0%
 flops    40 x    26 x   261            136805760     100.0%      0.0%      0.0%
 flops    40 x    26 x   266            139426560     100.0%      0.0%      0.0%
 flops     9 x     9 x    26            165405240     100.0%      0.0%      0.0%
 flops    26 x    26 x   270            168648480     100.0%      0.0%      0.0%
 flops    40 x    32 x    32            183500800     100.0%      0.0%      0.0%
 flops     9 x    26 x   270            191056320     100.0%      0.0%      0.0%
 flops    22 x    32 x   270            191600640     100.0%      0.0%      0.0%
 flops    26 x    32 x   261            200648448     100.0%      0.0%      0.0%
 flops    32 x    26 x   261            200648448     100.0%      0.0%      0.0%
 flops    32 x    32 x    32            204472320     100.0%      0.0%      0.0%
 flops    26 x    32 x   266            204492288     100.0%      0.0%      0.0%
 flops    32 x    26 x   266            204492288     100.0%      0.0%      0.0%
 flops     9 x    32 x   261            227308032     100.0%      0.0%      0.0%
 flops     9 x    32 x   266            231662592     100.0%      0.0%      0.0%
 flops    53 x    26 x    32            246937600     100.0%      0.0%      0.0%
 flops    53 x    32 x    26            246937600     100.0%      0.0%      0.0%
 flops    40 x    26 x   270            283046400     100.0%      0.0%      0.0%
 flops    31 x    32 x    26            288870400     100.0%      0.0%      0.0%
 flops    31 x    26 x    32            288870400     100.0%      0.0%      0.0%
 flops    40 x    32 x   261            336752640     100.0%      0.0%      0.0%
 flops    40 x    32 x   266            343203840     100.0%      0.0%      0.0%
 flops     9 x     9 x    32            407151360     100.0%      0.0%      0.0%
 flops    26 x    32 x   270            415134720     100.0%      0.0%      0.0%
 flops    32 x    26 x   270            415134720     100.0%      0.0%      0.0%
 flops    22 x     9 x    26            415855440     100.0%      0.0%      0.0%
 flops     9 x    22 x    26            416576160     100.0%      0.0%      0.0%
 flops    53 x    26 x   261            453169080     100.0%      0.0%      0.0%
 flops    53 x    26 x   266            461850480     100.0%      0.0%      0.0%
 flops     9 x    32 x   270            470292480     100.0%      0.0%      0.0%
 flops    32 x    32 x   261            493903872     100.0%      0.0%      0.0%
 flops    32 x    32 x   266            503365632     100.0%      0.0%      0.0%
 flops    31 x    26 x   261            530122320     100.0%      0.0%      0.0%
 flops    31 x    26 x   266            540277920     100.0%      0.0%      0.0%
 flops    53 x    32 x    32            607846400     100.0%      0.0%      0.0%
 flops    40 x    32 x   270            696729600     100.0%      0.0%      0.0%
 flops    31 x    32 x    32            711065600     100.0%      0.0%      0.0%
 flops     9 x    26 x     9            802701900     100.0%      0.0%      0.0%
 flops    53 x    26 x   270            937591200     100.0%      0.0%      0.0%
 flops    32 x    32 x   270           1021870080     100.0%      0.0%      0.0%
 flops    22 x     9 x    32           1023644160     100.0%      0.0%      0.0%
 flops     9 x    22 x    32           1025418240     100.0%      0.0%      0.0%
 flops    31 x    26 x   270           1096804800     100.0%      0.0%      0.0%
 flops    22 x    22 x    26           1109908800     100.0%      0.0%      0.0%
 flops    53 x    32 x   261           1115493120     100.0%      0.0%      0.0%
 flops    53 x    32 x   266           1136862720     100.0%      0.0%      0.0%
 flops    31 x    32 x   261           1304916480     100.0%      0.0%      0.0%
 flops    31 x    32 x   266           1329914880     100.0%      0.0%      0.0%
 flops     9 x    32 x     9           1975881600     100.0%      0.0%      0.0%
 flops     9 x    26 x    22           2081079000     100.0%      0.0%      0.0%
 flops    22 x    26 x     9           2081079000     100.0%      0.0%      0.0%
 flops    53 x    32 x   270           2307916800     100.0%      0.0%      0.0%
 flops    31 x    32 x   270           2699827200     100.0%      0.0%      0.0%
 flops    22 x    22 x    32           2732083200     100.0%      0.0%      0.0%
 flops    22 x    32 x     9           5122656000     100.0%      0.0%      0.0%
 flops     9 x    32 x    22           5122656000     100.0%      0.0%      0.0%
 flops    22 x    26 x    22           5395390000     100.0%      0.0%      0.0%
 flops    22 x    32 x    22          13280960000     100.0%      0.0%      0.0%
 flops inhomo. stacks                 11029132800     100.0%      0.0%      0.0%
 flops total                        79.795512E+09     100.0%      0.0%      0.0%
 flops max/rank                      7.292060E+09     100.0%      0.0%      0.0%
 matmuls inhomo. stacks                     24192     100.0%      0.0%      0.0%
 matmuls total                            3061494     100.0%      0.0%      0.0%
 number of processed stacks                449619     100.0%      0.0%      0.0%
 average stack size                                     6.8       0.0       0.0
 marketing flops                    85.671830E+09
 -------------------------------------------------------------------------------
 # multiplications                           1286
 max memory usage/rank               4.467220E+09
 # max total images/rank                        1
 # max 3D layers                                1
 # MPI messages exchanged                  123456
 MPI messages size (bytes):
  total size                        11.173573E+09
  min size                           0.000000E+00
  max size                         583.200000E+03
  average size                      90.506516E+03
 MPI breakdown and total messages size (bytes):
             size <=      128               37485                        0
       128 < size <=     8192               28683                206521632
      8192 < size <=    32768                   0                        0
     32768 < size <=   131072               42840               2742616800
    131072 < size <=  4194304               14448               8224444536
   4194304 < size <= 16777216                   0                        0
  16777216 < size                               0                        0
 -------------------------------------------------------------------------------
 -                                                                             -
 -                      DBCSR MESSAGE PASSING PERFORMANCE                      -
 -                                                                             -
 -------------------------------------------------------------------------------
 ROUTINE             CALLS      AVE VOLUME [Bytes]
 MP_Bcast               87                     12.
 MP_Allreduce         6922                      8.
 MP_Alltoall          5344                  20041.
 MP_ISend            20548                  38358.
 MP_IRecv            20548                  36306.
 -------------------------------------------------------------------------------

 -------------------------------------------------------------------------------
 -                                                                             -
 -                                GRID STATISTICS                              -
 -                                                                             -
 -------------------------------------------------------------------------------
 LP    KERNEL             BACKEND                              COUNT     PERCENT
 2     collocate ortho    REF                                1126269      19.20%
 2     integrate ortho    REF                                1106014      18.85%
 1     collocate ortho    REF                                 943978      16.09%
 1     integrate ortho    REF                                 870340      14.83%
 3     integrate ortho    REF                                 570062       9.72%
 3     collocate ortho    REF                                 500530       8.53%
 0     collocate ortho    REF                                 281245       4.79%
 0     integrate ortho    REF                                 249988       4.26%
 4     integrate ortho    REF                                 121240       2.07%
 4     collocate ortho    REF                                  73823       1.26%
 5     integrate ortho    REF                                   8201       0.14%
 0     collocate general  REF                                   7616       0.13%
 1     integrate general  REF                                   7616       0.13%
 -------------------------------------------------------------------------------

 MEMORY| Estimated peak process memory [MiB]                                4299

 -------------------------------------------------------------------------------
 -                                                                             -
 -                         MESSAGE PASSING PERFORMANCE                         -
 -                                                                             -
 -------------------------------------------------------------------------------

 ROUTINE             CALLS      AVE VOLUME [Bytes]
 MP_Group                8
 MP_Bcast             6935               10576129.
 MP_Allreduce         2453                1675497.
 MP_Sync               430
 MP_Alltoall          1344               71189870.
 MP_ISendRecv         6195                 195908.
 MP_Wait             12964
 MP_comm_split          14
 MP_ISend             5887                1348673.
 MP_IRecv             5880                1349303.
 MP_Recv                21                 196328.
 -------------------------------------------------------------------------------


 -------------------------------------------------------------------------------
 -                                                                             -
 -                           R E F E R E N C E S                               -
 -                                                                             -
 -------------------------------------------------------------------------------
 
 CP2K version 8.2, the CP2K developers group (2021).
 CP2K is freely available from https://www.cp2k.org/ .

 Kuehne,Thomas D.; Iannuzzi,Marcella; Del Ben,Mauro;
 Rybkin,Vladimir V.; Seewald,Patrick; Stein,Frederick; Laino,Teodoro;
 Khaliullin,Rustam Z.; Schuett,Ole; Schiffmann,Florian; Golze,Dorothea;
 Wilhelm,Jan; Chulkov,Sergey; Bani-Hashemian,Mohammad Hossein;
 Weber,Valery; Borstnik,Urban; Taillefumier,Mathieu;
 Jakobovits,Alice Shoshana; Lazzaro,Alfio; Pabst,Hans; Mueller,Tiziano;
 Schade,Robert; Guidon,Manuel; Andermatt,Samuel; Holmberg,Nico;
 Schenter,Gregory K.; Hehn,Anna; Bussy,Augustin; Belleflamme,Fabian;
 Tabacchi,Gloria; Gloess,Andreas; Lass,Michael; Bethune,Iain;
 Mundy,Christopher J.; Plessl,Christian; Watkins,Matt;
 VandeVondele,Joost; Krack,Matthias; Hutter,Juerg. 
 The Journal of Chemical Physics, 152 (19), (2020). 
 CP2K: An electronic structure and molecular dynamics software package -
 Quickstep: Efficient and accurate electronic structure calculations.
 https://doi.org/10.1063/5.0007045

 Schuett, Ole; Messmer, Peter; Hutter, Juerg; VandeVondele, Joost. 
 Electronic Structure Calculations on Graphics Processing Units, John
 Wiley & Sons, Ltd, 173-190 (2016). 
 GPU-Accelerated Sparse Matrix-Matrix Multiplication for
 Linear Scaling Density Functional Theory.
 https://doi.org/10.1002/9781118670712.ch8

 Borstnik, U; VandeVondele, J; Weber, V; Hutter, J. 
 PARALLEL COMPUTING, 40 (5-6), 47-58 (2014). 
 Sparse matrix multiplication: The distributed block-compressed sparse
 row library.
 https://doi.org/10.1016/j.parco.2014.03.012

 Hutter, J; Iannuzzi, M; Schiffmann, F; VandeVondele, J. 
 WIREs Comput Mol Sci., 4 (1), 15-25 (2014). 
 CP2K: atomistic simulations of condensed matter systems.
 https://doi.org/10.1002/wcms.1159

 Marek, A; Blum, V; Johanni, R; Havu, V; Lang, B; Auckenthaler, T;
 Heinecke, A; Bungartz, H; Lederer, H. 
 Journal of Physics: Condensed Matter, 26 (21), (2014). 
 The ELPA library: scalable parallel eigenvalue solutions for
 electronic structure
 theory and computational science.
 https://doi.org/10.1088/0953-8984/26/21/213201

 Guidon, M; Hutter, J; VandeVondele, J. 
 JOURNAL OF CHEMICAL THEORY AND COMPUTATION, 5 (11), 3010-3021 (2009). 
 Robust Periodic Hartree-Fock Exchange for Large-Scale Simulations Using
 Gaussian Basis Sets.
 https://doi.org/10.1021/ct900494g

 Guidon, M; Schiffmann, F; Hutter, J; VandeVondele, J. 
 JOURNAL OF CHEMICAL PHYSICS, 128 (21), 214104 (2008). 
 Ab initio molecular dynamics using hybrid density functionals.
 https://doi.org/10.1063/1.2931945

 Kuhne, TD; Krack, M; Mohamed, FR; Parrinello, M. 
 PHYSICAL REVIEW LETTERS, 98 (6), 066401 (2007). 
 Efficient and accurate Car-Parrinello-like approach to
 Born-Oppenheimer molecular dynamics.
 https://doi.org/10.1103/PhysRevLett.98.066401

 Laino, T; Mohamed, F; Laio, A; Parrinello, M. 
 JOURNAL OF CHEMICAL THEORY AND COMPUTATION, 2 (5), 1370-1378 (2006). 
 An efficient linear-scaling electrostatic coupling for treating
 periodic boundary conditions in QM/MM simulations.
 https://doi.org/10.1021/ct6001169

 Laino, T; Mohamed, F; Laio, A; Parrinello, M. 
 JOURNAL OF CHEMICAL THEORY AND COMPUTATION, 1 (6), 1176-1184 (2005). 
 An efficient real space multigrid QM/MM electrostatic coupling.
 https://doi.org/10.1021/ct050123f

 Krack, M. 
 THEORETICAL CHEMISTRY ACCOUNTS, 114 (1-3), 145-152 (2005). 
 Pseudopotentials for H to Kr optimized for gradient-corrected
 exchange-correlation functionals.
 https://doi.org/10.1007/s00214-005-0655-y

 VandeVondele, J; Krack, M; Mohamed, F; Parrinello, M; Chassaing, T;
 Hutter, J. COMPUTER PHYSICS COMMUNICATIONS, 167 (2), 103-128 (2005). 
 QUICKSTEP: Fast and accurate density functional calculations using a
 mixed Gaussian and plane waves approach.
 https://doi.org/10.1016/j.cpc.2004.12.014

 Frigo, M; Johnson, SG. 
 PROCEEDINGS OF THE IEEE, 93 (2), 216-231 (2005). 
 The design and implementation of FFTW3.
 https://doi.org/10.1109/JPROC.2004.840301

 Kolafa, J. 
 JOURNAL OF COMPUTATIONAL CHEMISTRY, 25 (3), 335-342 (2004). 
 Time-reversible always stable predictor-corrector method for molecular dynamics of polarizable molecules.
 https://doi.org/10.1002/jcc.10385

 VandeVondele, J; Hutter, J. 
 JOURNAL OF CHEMICAL PHYSICS, 118 (10), 4365-4369 (2003). 
 An efficient orbital transformation method for electronic structure
 calculations.
 https://doi.org/10.1063/1.1543154

 Hartwigsen, C; Goedecker, S; Hutter, J. 
 PHYSICAL REVIEW B, 58 (7), 3641-3662 (1998). 
 Relativistic separable dual-space Gaussian pseudopotentials from H to Rn.
 https://doi.org/10.1103/PhysRevB.58.3641

 Lippert, G; Hutter, J; Parrinello, M. 
 MOLECULAR PHYSICS, 92 (3), 477-487 (1997). 
 A hybrid Gaussian and plane wave density functional scheme.
 https://doi.org/10.1080/002689797170220

 Perdew, JP; Burke, K; Ernzerhof, M. 
 PHYSICAL REVIEW LETTERS, 77 (18), 3865-3868 (1996). 
 Generalized gradient approximation made simple.
 https://doi.org/10.1103/PhysRevLett.77.3865

 Goedecker, S; Teter, M; Hutter, J. 
 PHYSICAL REVIEW B, 54 (3), 1703-1710 (1996). 
 Separable dual-space Gaussian pseudopotentials.
 https://doi.org/10.1103/PhysRevB.54.1703

 ESSMANN, U; PERERA, L; BERKOWITZ, ML; DARDEN, T; LEE, H; PEDERSEN, LG. 
 JOURNAL OF CHEMICAL PHYSICS, 103 (19), 8577-8593 (1995). 
 A SMOOTH PARTICLE MESH EWALD METHOD.
 https://doi.org/10.1063/1.470117

 BLOCHL, PE. 
 JOURNAL OF CHEMICAL PHYSICS, 103 (17), 7422-7428 (1995). 
 ELECTROSTATIC DECOUPLING OF PERIODIC IMAGES OF PLANE-WAVE-EXPANDED
 DENSITIES AND DERIVED ATOMIC POINT CHARGES.
 https://doi.org/10.1063/1.470314


 -------------------------------------------------------------------------------
 -                                                                             -
 -                                T I M I N G                                  -
 -                                                                             -
 -------------------------------------------------------------------------------
 SUBROUTINE                       CALLS  ASD         SELF TIME        TOTAL TIME
                                MAXIMUM       AVERAGE  MAXIMUM  AVERAGE  MAXIMUM
 CP2K                                 1  1.0    0.489    0.502  572.477  572.477
 qs_mol_dyn_low                       1  2.0    0.174    0.176  527.599  529.123
 velocity_verlet                      6  3.0    0.022    0.023  440.449  440.609
 qs_forces                            7  3.9    0.006    0.007  336.722  336.722
 rebuild_ks_matrix                   63  8.5    0.001    0.001  305.627  305.635
 qs_ks_build_kohn_sham_matrix        63  9.5    0.021    0.023  305.627  305.635
 hfx_ks_matrix                       63 10.5    0.004    0.004  238.999  239.111
 qs_energies                          7  4.9    0.006    0.007  186.379  186.451
 scf_env_do_scf                       7  5.9    0.000    0.002  180.821  180.822
 qs_ks_update_qs_env                 63  7.8    0.001    0.001  155.501  155.509
 qs_ks_update_qs_env_forces           7  4.9    0.000    0.000  150.135  150.136
 derivatives_four_center              7  8.9    0.028    0.278  136.538  136.539
 derivatives_four_center_main         7  9.9    0.480    0.797  136.055  136.057
 derivatives_four_center_bin        556 10.9  134.929  135.456  134.929  135.456
 scf_env_do_scf_inner_loop           56  6.8    0.004    0.006  114.026  114.037
 integrate_four_center               63 11.5    3.810    4.592  102.441  102.553
 integrate_four_center_main          63 12.5    0.267    0.369   93.856   94.481
 integrate_four_center_bin         4094 13.5   93.589   94.200   93.589   94.200
 qmmm_el_coupling                     7  3.9    0.001    0.007   91.928   92.053
 qmmm_elec_with_gaussian              7  4.9    0.754    0.766   91.917   92.044
 qmmm_forces                          7  3.9    0.021    0.022   86.933   86.934
 qmmm_forces_with_gaussian            7  4.9    0.767    0.779   85.685   86.065
 qmmm_elec_with_gaussian_low          7  5.9    0.000    0.000   71.428   72.720
 init_scf_loop                        7  6.9    0.002    0.003   66.780   66.780
 qmmm_force_with_gaussian_low         7  5.9    0.000    0.000   62.662   62.943
 pw_transfer                       1337 12.0    0.108    0.123   55.625   57.821
 fft_wrap_pw1pw2                   1113 13.1    0.013    0.014   54.632   56.819
 fft_wrap_pw1pw2_200                707 14.4    4.479    4.720   53.739   55.896
 qmmm_forces_gaussian_low_R           7  6.9    0.000    0.000   51.878   52.226
 qmmm_forces_with_gaussian_LG         7  7.9   51.878   52.226   51.878   52.226
 qmmm_elec_gaussian_low_R             7  6.9    0.000    0.001   46.066   46.842
 qmmm_elec_with_gaussian_LG           7  7.9   46.066   46.842   46.066   46.842
 fft3d_ps                          1113 15.1   26.314   27.871   43.694   46.042
 qs_vxc_create                       63 10.5    0.005    0.005   43.856   43.858
 xc_vxc_pw_create                    63 11.5    0.892    0.956   43.852   43.854
 qmmm_env_create                      1  2.0    7.850    7.850   42.821   42.822
 fist_init                            1  3.0    0.065    0.068   31.494   31.494
 qmmm_elec_gaussian_low_G             7  6.9   25.361   26.012   25.361   26.012
 qs_rho_update_rho                   63  7.9    0.002    0.002   25.222   25.226
 calculate_rho_elec                  63  8.9    0.464    0.474   25.220   25.224
 pw_integral_ab                    2967  7.5   22.284   22.769   22.598   23.293
 xc_rho_set_and_dset_create          63 12.5    0.274    0.319   22.108   23.236
 pw_restrict_s3                      21  5.9    2.386    2.441   18.338   18.431
 density_rs2pw                       63  9.9    0.003    0.003   16.130   17.291
 rdparm_amber_8                       2  6.5   12.729   12.845   16.309   16.355
 topology_control                     1  4.0    0.020    0.021   15.615   15.738
 force_field_control                  1  4.0    0.004    0.007   15.618   15.703
 qmmm_elec_with_gaussian:spline       7  5.9    0.000    0.000   13.835   13.961
 pw_prolongate_s3                    21  6.9    1.797    1.849   13.835   13.961
 mp_alltoall_z22v                  1113 17.1   10.141   12.318   10.141   12.318
 mp_sum_dm3                          38  5.7   11.056   11.990   11.056   11.990
 -------------------------------------------------------------------------------

 The number of warnings for this run is : 0
 
 -------------------------------------------------------------------------------
  **** **** ******  **  PROGRAM ENDED AT                 2021-08-31 17:53:20.738
 ***** ** ***  *** **   PROGRAM RAN ON                                 nid001758
 **    ****   ******    PROGRAM RAN BY                                     hjbio
 ***** **    ** ** **   PROGRAM PROCESS ID                                 72819
  **** **  *******  **  PROGRAM STOPPED IN /lus/cls01095/work/d118/d118/hjbio/qm
                                           mm-benchmarking/archer2/CPU/cp2kMD/CB
                                           D_PHY-PBE0/6STEPS/1NODES/128CPN/8THRE
                                           ADS
