 DBCSR| CPU Multiplication driver                                           BLAS
 DBCSR| Multrec recursion limit                                              512
 DBCSR| Multiplication stack size                                           1000
 DBCSR| Maximum elements for images                                    UNLIMITED
 DBCSR| Multiplicative factor virtual images                                   1
 DBCSR| Use multiplication densification                                       T
 DBCSR| Multiplication size stacks                                             3
 DBCSR| Use memory pool for CPU allocation                                     F
 DBCSR| Number of 3D layers                                               SINGLE
 DBCSR| Use MPI memory allocation                                              F
 DBCSR| Use RMA algorithm                                                      F
 DBCSR| Use Communication thread                                               T
 DBCSR| Communication thread load                                             75
 DBCSR| MPI: My node id                                                        0
 DBCSR| MPI: Number of nodes                                                  64
 DBCSR| OMP: Current number of threads                                         4
 DBCSR| OMP: Max number of threads                                             4
 DBCSR| Split modifier for TAS multiplication algorithm                  1.0E+00


  **** **** ******  **  PROGRAM STARTED AT               2021-09-01 11:26:52.928
 ***** ** ***  *** **   PROGRAM STARTED ON                             nid001927
 **    ****   ******    PROGRAM STARTED BY                                 hjbio
 ***** **    ** ** **   PROGRAM PROCESS ID                                 12460
  **** **  *******  **  PROGRAM STARTED IN /lus/cls01095/work/d118/d118/hjbio/qm
                                           mm-benchmarking/archer2/CPU/cp2kMD/CB
                                           D_PHY-PBE0/6STEPS/2NODES/128CPN/4THRE
                                           ADS

 CP2K| version string:                                          CP2K version 8.2
 CP2K| source code revision number:                                  git:310b7ab
 CP2K| cp2kflags: omp libint fftw3 libxc elpa parallel mpi3 scalapack plumed2   
 CP2K| is freely available from                            https://www.cp2k.org/
 CP2K| Program compiled at                          Thu 10 Jun 17:43:51 BST 2021
 CP2K| Program compiled on                                                 uan01
 CP2K| Program compiled for                                              ARCHER2
 CP2K| Data directory path              /work/d118/d118/hjbio/CP2K/cp2k-8.2/data
 CP2K| Input file name                                          CBD_PHY-cp2k.inp

 GLOBAL| Force Environment number                                              1
 GLOBAL| Basis set file name                                           HFX_BASIS
 GLOBAL| Potential file name                                           POTENTIAL
 GLOBAL| MM Potential file name                                     MM_POTENTIAL
 GLOBAL| Coordinate file name                                        CBD_PHY.pdb
 GLOBAL| Method name                                                        CP2K
 GLOBAL| Project name                                               CBD_PHY-PBE0
 GLOBAL| Run type                                                             MD
 GLOBAL| FFT library                                                       FFTW3
 GLOBAL| Diagonalization library                                            ELPA
 GLOBAL| Minimum number of eigenvectors for ELPA usage                        16
 GLOBAL| Orthonormality check for eigenvectors                          DISABLED
 GLOBAL| Matrix multiplication library                                    SCALAP
 GLOBAL| All-to-all communication in single precision                          F
 GLOBAL| FFTs using library dependent lengths                                  F
 GLOBAL| Grid backend                                                       AUTO
 GLOBAL| Global print level                                                  LOW
 GLOBAL| MPI I/O enabled                                                       T
 GLOBAL| Total number of message passing processes                            64
 GLOBAL| Number of threads for this process                                    4
 GLOBAL| This output is from process                                           0
 GLOBAL| CPU model name                          AMD EPYC 7742 64-Core Processor
 GLOBAL| CPUID                                                              1002

 MEMORY| system memory details [Kb]
 MEMORY|                        rank 0           min           max       average
 MEMORY| MemTotal            263568576     263568576     263568576     263568576
 MEMORY| MemFree             224144080     224144080     244099944     234122012
 MEMORY| Buffers                349136        118668        349136        233902
 MEMORY| Cached               24863052       8108524      24863052      16485788
 MEMORY| Slab                  4620604       2387436       4620604       3504020
 MEMORY| SReclaimable           368524        206152        368524        287338
 MEMORY| MemLikelyFree       249724792     249724792     252533288     251129040



                      ************* ******** ***********   
                     ************* **********************  
                     ****     **** ****      ***********   
                     ******** ****  *******     ****       
                     *******  ****   *******   ****        
                     ****     ****       ****  ****        
                     ****     **** **********  ****        
                      ****     **** ********    ****       
                     FRONTIERS IN SIMULATION TECHNOLOGY    
                                                           
                        C.J. Mundy, S. Balasubramanian,    
                     Ken Bagchi, J. Hutter, Ari Seitsonen  
                      IFW Kuo, T. Laino, J. VandeVondele   
                                 Version 1.0               

                                                           


 EWALD| Summation is done by:                                               SPME
 EWALD| Alpha parameter [       ANGSTROM^-1]                              0.4000
 EWALD| Real Space Cutoff [          ANGSTROM]                            8.4348
 EWALD| G-space max. Miller index                         80        80        80
 EWALD| Spline interpolation order                                             6

 FORCEFIELD| WARNING: A non Critical ForceField parameter is missing! CP2K GOES!
 FORCEFIELD| Non critical parameters are:Urey-Bradley,Torsions,Impropers, Opbends and 1-4
 FORCEFIELD| All missing parameters will not contribute to the potential energy!
 FORCEFIELD| Activate the print key FF_INFO to have a list of missing parameters

 CHARGE_INFO| Total Charge of the Classical System:                    -0.825808

 SPLINE_INFO| Generating 101926 splines for NONBONDED14 interactions 
              Due to 451 different atomic kinds
  ...10192  ...20384  ...30576  ...40768  ...50960  ...61152  ...71344  ...81536  ...91728  ...101920
 SPLINE_INFO| Number of unique splines computed:            301
 SPLINE_INFO| Done

 SPLINE_INFO| Generating 101926 splines for NONBONDED interactions 
              Due to 451 different atomic kinds
  ...10192  ...20384  ...30576  ...40768  ...50960  ...61152  ...71344  ...81536  ...91728  ...101920
 SPLINE_INFO| Number of unique splines computed:            301
 SPLINE_INFO| Done

 *******************************************************************************
 *******************************************************************************
 **                                                                           **
 **     #####                         ##              ##                      **
 **    ##   ##            ##          ##              ##                      **
 **   ##     ##                       ##            ######                    **
 **   ##     ##  ##   ##  ##   #####  ##  ##   ####   ##    #####    #####    **
 **   ##     ##  ##   ##  ##  ##      ## ##   ##      ##   ##   ##  ##   ##   **
 **   ##  ## ##  ##   ##  ##  ##      ####     ###    ##   ######   ######    **
 **    ##  ###   ##   ##  ##  ##      ## ##      ##   ##   ##       ##        **
 **     #######   #####   ##   #####  ##  ##  ####    ##    #####   ##        **
 **           ##                                                    ##        **
 **                                                                           **
 **                                                ... make the atoms dance   **
 **                                                                           **
 **            Copyright (C) by CP2K developers group (2000-2021)             **
 **                      J. Chem. Phys. 152, 194103 (2020)                    **
 **                                                                           **
 *******************************************************************************


 TOTAL NUMBERS AND MAXIMUM NUMBERS

  Total number of            - Atomic kinds:                                   5
                             - Atoms:                                         68
                             - Shell sets:                                   340
                             - Shells:                                       445
                             - Primitive Cartesian functions:                476
                             - Cartesian basis functions:                   1137
                             - Spherical basis functions:                   1067

  Maximum angular momentum of- Orbital basis functions:                        2
                             - Local part of the GTH pseudopotential:          2
                             - Non-local part of the GTH pseudopotential:      0


 SCF PARAMETERS         Density guess:                                   RESTART
                        --------------------------------------------------------
                        max_scf:                                              30
                        max_scf_history:                                       0
                        max_diis:                                              4
                        --------------------------------------------------------
                        eps_scf:                                        1.00E-06
                        eps_scf_history:                                0.00E+00
                        eps_diis:                                       1.00E-01
                        eps_eigval:                                     1.00E-05
                        --------------------------------------------------------
                        level_shift [a.u.]:                                 0.00
                        --------------------------------------------------------
                        Outer loop SCF in use 
                        No variables optimised in outer loop
                        eps_scf                                         1.00E-06
                        max_scf                                               20
                        No outer loop optimization
                        step_size                                       5.00E-01

 *******************************************************************************
 *******************************************************************************
 **                                                                           **
 **             #######  ##     ## ##     ## ##     ##                        **
 **            ##     ## ###   ### ###   ### ###   ###                        **
 **            ##     ## #### #### #### #### #### ####                        **
 **            ##     ## ## ### ## ## ### ## ## ### ##                        **
 **            ##  ## ## ##     ## ##     ## ##     ##                        **
 **            ##    ##  ##     ## ##     ## ##     ##  T.Laino and F.Mohamed **
 **             ##### ## ##     ## ##     ## ##     ##  2005 - 2015           **
 **                                                                           **
 **                                                     Calculation Started.. **
 *******************************************************************************
 *******************************************************************************

 MD_PAR| Molecular dynamics protocol (MD input parameters)
 MD_PAR| Ensemble type                                                       NVE
 MD_PAR| Number of time steps                                                  6
 MD_PAR| Time step [fs]                                                 1.000000
 MD_PAR| Temperature [K]                                              300.000000
 MD_PAR| Temperature tolerance [K]                                      0.000000
 MD_PAR| Print MD information every                                    1 step(s)
 MD_PAR| File type   Print frequency [steps]                          File names
 MD_PAR| Coordinates          1                           CBD_PHY-PBE0-pos-1.xyz
 MD_PAR| Velocities           1                           CBD_PHY-PBE0-vel-1.xyz
 MD_PAR| Energies             1                              CBD_PHY-PBE0-1.ener
 MD_PAR| Dump                20                           CBD_PHY-PBE0-1.restart

 ROT| Rotational analysis information
 ROT| Principal axes and moments of inertia [a.u.]
 ROT|                           1                   2                   3
 ROT| Eigenvalues      1.56283164001E+13   1.56407408488E+13   1.56663418804E+13
 ROT|      x              0.901637047331     -0.018153263569      0.432112362589
 ROT|      y              0.323714777231      0.690893927917     -0.646431994388
 ROT|      z             -0.286808957117      0.722728191915      0.628812040859
 ROT| Number of rotovibrational vectors                                        6

 DOF| Calculation of degrees of freedom
 DOF| Number of atoms                                                     167923
 DOF| Number of intramolecular constraints                                     0
 DOF| Number of intermolecular constraints                                     0
 DOF| Invariants (translations + rotations)                                    3
 DOF| Degrees of freedom                                                  503766

 DOF| Restraints information
 DOF| Number of intramolecular restraints                                      0
 DOF| Number of intermolecular restraints                                      0

 MD_VEL| Velocities initialization
 MD_VEL| Initial temperature [K]                                      300.000000
 MD_VEL| COM velocity            -0.0000000000     0.0000000000     0.0000000000

  Translating the system in order to center the QM fragment in the QM box.

 Number of electrons:                                                        180
 Number of occupied orbitals:                                                 90
 Number of molecular orbitals:                                                90

 Number of orbital functions:                                               1067
 Number of independent orbital functions:                                   1067

 Extrapolation method: initial_guess


 SCF WAVEFUNCTION OPTIMIZATION

  ----------------------------------- OT ---------------------------------------
  Minimizer      : DIIS                : direct inversion
                                         in the iterative subspace
                                         using   7 DIIS vectors
                                         safer DIIS on
  Preconditioner : FULL_ALL            : diagonalization, state selective
  Precond_solver : DEFAULT
  stepsize       :    0.15000000                  energy_gap     :    0.08000000
  eps_taylor     :   0.10000E-15                  max_taylor     :             4
  ----------------------------------- OT ---------------------------------------

  Step     Update method      Time    Convergence         Total energy    Change
  ------------------------------------------------------------------------------
  Decoupling Energy:                                               0.0370647021
  Recoupling Energy:                                              -0.0063741479
     1 OT DIIS     0.15E+00    7.2     0.00129057      -255.9257316521 -2.56E+02
  Decoupling Energy:                                               0.0370576004
  Recoupling Energy:                                              -0.0063740314
     2 OT DIIS     0.15E+00    1.0     0.00057761      -255.9419521977 -1.62E-02
  Decoupling Energy:                                               0.0369596417
  Recoupling Energy:                                              -0.0063730135
     3 OT DIIS     0.15E+00    1.0     0.00038348      -255.9451217318 -3.17E-03
  Decoupling Energy:                                               0.0369795470
  Recoupling Energy:                                              -0.0063732416
     4 OT DIIS     0.15E+00    1.0     0.00009866      -255.9458275768 -7.06E-04
  Decoupling Energy:                                               0.0369716948
  Recoupling Energy:                                              -0.0063731487
     5 OT DIIS     0.15E+00    1.0     0.00003992      -255.9458779686 -5.04E-05
  Decoupling Energy:                                               0.0369737640
  Recoupling Energy:                                              -0.0063731649
     6 OT DIIS     0.15E+00    1.0     0.00001793      -255.9458894170 -1.14E-05
  Decoupling Energy:                                               0.0369741808
  Recoupling Energy:                                              -0.0063731680
     7 OT DIIS     0.15E+00    1.0     0.00000621      -255.9458922938 -2.88E-06
  Decoupling Energy:                                               0.0369727127
  Recoupling Energy:                                              -0.0063731518
     8 OT DIIS     0.15E+00    1.0     0.00000242      -255.9458926328 -3.39E-07
  Decoupling Energy:                                               0.0369731061
  Recoupling Energy:                                              -0.0063731556
     9 OT DIIS     0.15E+00    1.0     0.00000111      -255.9458926822 -4.94E-08
  Decoupling Energy:                                               0.0369728228
  Recoupling Energy:                                              -0.0063731526
    10 OT DIIS     0.15E+00    1.0     0.00000048      -255.9458926924 -1.02E-08

  *** SCF run converged in    10 steps ***


  Electronic density on regular grids:       -179.9999999999        0.0000000001
  Core density on regular grids:              180.9999999999       -0.0000000001
  Total charge density on r-space grids:        1.0000000000
  Total charge density g-space grids:           1.0000000000

  Overlap energy of the core charge distribution:               0.00001951532734
  Self energy of the core charge distribution:               -615.71576003586028
  Core Hamiltonian energy:                                    191.01363220818109
  Hartree energy:                                             248.20663869015590
  Exchange-correlation energy:                                -61.38430761263428
  Hartree-Fock Exchange energy:                               -18.10821018492847
  QM/MM Electrostatic energy:                                   0.04209472735337

  Total energy:                                              -255.94589269240529

  outer SCF iter =    1 RMS gradient =   0.48E-06 energy =       -255.9458926924
  outer SCF loop converged in   1 iterations or   10 steps

  Decoupling Energy:                                               0.0369728028
  Recoupling Energy:                                              -0.0063731523

 ENERGY| Total FORCE_EVAL ( QMMM ) energy [a.u.]:          -1088.110859624498062

 MD_INI| MD initialization
 MD_INI| Potential energy [hartree]                          -0.108811085962E+04
 MD_INI| Total kinetic energy [hartree]                       0.239300084734E+03
 MD_INI| QM kinetic energy [hartree]                          0.106639360339E+00
 MD_INI| Total temperature [K]                                        300.000000
 MD_INI| QM temperature [K]                                           330.137318
 MD_INI| Cell volume [bohr^3]                                 1.137316355424E+07
 MD_INI| Cell volume [ang^3]                                  1.685328937712E+06
 MD_INI| Cell lengths [bohr]      2.24884969E+02  2.24884969E+02  2.24884969E+02
 MD_INI| Cell lengths [ang]       1.19004000E+02  1.19004000E+02  1.19004000E+02
 MD_INI| Cell angles [deg]        9.00000000E+01  9.00000000E+01  9.00000000E+01

  Translating the system in order to center the QM fragment in the QM box.

 Number of electrons:                                                        180
 Number of occupied orbitals:                                                 90
 Number of molecular orbitals:                                                90

 Number of orbital functions:                                               1067
 Number of independent orbital functions:                                   1067

 Extrapolation method: ASPC


 SCF WAVEFUNCTION OPTIMIZATION

  ----------------------------------- OT ---------------------------------------
  Minimizer      : DIIS                : direct inversion
                                         in the iterative subspace
                                         using   7 DIIS vectors
                                         safer DIIS on
  Preconditioner : FULL_ALL            : diagonalization, state selective
  Precond_solver : DEFAULT
  stepsize       :    0.15000000                  energy_gap     :    0.08000000
  eps_taylor     :   0.10000E-15                  max_taylor     :             4
  ----------------------------------- OT ---------------------------------------

  Step     Update method      Time    Convergence         Total energy    Change
  ------------------------------------------------------------------------------
  Decoupling Energy:                                               0.0370014667
  Recoupling Energy:                                              -0.0063734172
     1 OT DIIS     0.15E+00    4.5     0.00075899      -255.7182133777 -2.56E+02
  Decoupling Energy:                                               0.0370082386
  Recoupling Energy:                                              -0.0063735355
     2 OT DIIS     0.15E+00    1.0     0.00032685      -255.7237312569 -5.52E-03
  Decoupling Energy:                                               0.0370087411
  Recoupling Energy:                                              -0.0063735590
     3 OT DIIS     0.15E+00    1.0     0.00019068      -255.7247685877 -1.04E-03
  Decoupling Energy:                                               0.0370199883
  Recoupling Energy:                                              -0.0063736817
     4 OT DIIS     0.15E+00    1.0     0.00006054      -255.7249610248 -1.92E-04
  Decoupling Energy:                                               0.0370216763
  Recoupling Energy:                                              -0.0063737045
     5 OT DIIS     0.15E+00    1.0     0.00001954      -255.7249775895 -1.66E-05
  Decoupling Energy:                                               0.0370210005
  Recoupling Energy:                                              -0.0063736984
     6 OT DIIS     0.15E+00    1.0     0.00000817      -255.7249798478 -2.26E-06
  Decoupling Energy:                                               0.0370221930
  Recoupling Energy:                                              -0.0063737124
     7 OT DIIS     0.15E+00    1.0     0.00000308      -255.7249803099 -4.62E-07
  Decoupling Energy:                                               0.0370222382
  Recoupling Energy:                                              -0.0063737132
     8 OT DIIS     0.15E+00    1.0     0.00000136      -255.7249803872 -7.72E-08
  Decoupling Energy:                                               0.0370224659
  Recoupling Energy:                                              -0.0063737159
     9 OT DIIS     0.15E+00    1.0     0.00000058      -255.7249804029 -1.57E-08

  *** SCF run converged in     9 steps ***


  Electronic density on regular grids:       -180.0000000000        0.0000000000
  Core density on regular grids:              180.9999999999       -0.0000000001
  Total charge density on r-space grids:        0.9999999999
  Total charge density g-space grids:           0.9999999999

  Overlap energy of the core charge distribution:               0.00002422739645
  Self energy of the core charge distribution:               -615.71576003586028
  Core Hamiltonian energy:                                    191.21094985779311
  Hartree energy:                                             248.07774820676869
  Exchange-correlation energy:                                -61.42683491579776
  Hartree-Fock Exchange energy:                               -18.12283148153834
  QM/MM Electrostatic energy:                                   0.25172373836225

  Total energy:                                              -255.72498040287581

  outer SCF iter =    1 RMS gradient =   0.58E-06 energy =       -255.7249804029
  outer SCF loop converged in   1 iterations or    9 steps

  Decoupling Energy:                                               0.0370224944
  Recoupling Energy:                                              -0.0063737164

 ENERGY| Total FORCE_EVAL ( QMMM ) energy [a.u.]:          -1059.962356572499630

 MD| ***************************************************************************
 MD| Step number                                                               1
 MD| Time [fs]                                                          1.000000
 MD| Conserved quantity [hartree]                            -0.841461427176E+03
 MD| ---------------------------------------------------------------------------
 MD|                                          Instantaneous             Averages
 MD| CPU time per MD step [s]                     89.295710            89.295710
 MD| Energy drift per atom [K]           0.138202490835E+02   0.000000000000E+00
 MD| Potential energy [hartree]         -0.105996235657E+04  -0.105996235657E+04
 MD| Total kinetic energy [hartree]      0.218500929396E+03   0.218500929396E+03
 MD| QM kinetic energy [hartree]         0.121347271473E+00   0.121347271473E+00
 MD| Total temperature [K]                       273.925013           273.925013
 MD| QM temperature [K]                          375.670509           375.670509
 MD| ***************************************************************************

  Translating the system in order to center the QM fragment in the QM box.

 Number of electrons:                                                        180
 Number of occupied orbitals:                                                 90
 Number of molecular orbitals:                                                90

 Number of orbital functions:                                               1067
 Number of independent orbital functions:                                   1067

 Extrapolation method: ASPC


 SCF WAVEFUNCTION OPTIMIZATION

  ----------------------------------- OT ---------------------------------------
  Minimizer      : DIIS                : direct inversion
                                         in the iterative subspace
                                         using   7 DIIS vectors
                                         safer DIIS on
  Preconditioner : FULL_ALL            : diagonalization, state selective
  Precond_solver : DEFAULT
  stepsize       :    0.15000000                  energy_gap     :    0.08000000
  eps_taylor     :   0.10000E-15                  max_taylor     :             4
  ----------------------------------- OT ---------------------------------------

  Step     Update method      Time    Convergence         Total energy    Change
  ------------------------------------------------------------------------------
  Decoupling Energy:                                               0.0370781908
  Recoupling Energy:                                              -0.0063743357
     1 OT DIIS     0.15E+00    4.4     0.00029256      -255.3622522644 -2.55E+02
  Decoupling Energy:                                               0.0370714474
  Recoupling Energy:                                              -0.0063742686
     2 OT DIIS     0.15E+00    1.0     0.00012380      -255.3630880714 -8.36E-04
  Decoupling Energy:                                               0.0370747208
  Recoupling Energy:                                              -0.0063743003
     3 OT DIIS     0.15E+00    1.0     0.00005679      -255.3632553997 -1.67E-04
  Decoupling Energy:                                               0.0370720773
  Recoupling Energy:                                              -0.0063742776
     4 OT DIIS     0.15E+00    1.0     0.00001757      -255.3632741925 -1.88E-05
  Decoupling Energy:                                               0.0370725485
  Recoupling Energy:                                              -0.0063742816
     5 OT DIIS     0.15E+00    1.0     0.00000682      -255.3632757193 -1.53E-06
  Decoupling Energy:                                               0.0370729653
  Recoupling Energy:                                              -0.0063742867
     6 OT DIIS     0.15E+00    1.0     0.00000313      -255.3632759770 -2.58E-07
  Decoupling Energy:                                               0.0370729501
  Recoupling Energy:                                              -0.0063742866
     7 OT DIIS     0.15E+00    1.0     0.00000105      -255.3632760380 -6.10E-08
  Decoupling Energy:                                               0.0370730080
  Recoupling Energy:                                              -0.0063742873
     8 OT DIIS     0.15E+00    1.0     0.00000048      -255.3632760481 -1.02E-08

  *** SCF run converged in     8 steps ***


  Electronic density on regular grids:       -180.0000000000       -0.0000000000
  Core density on regular grids:              180.9999999999       -0.0000000001
  Total charge density on r-space grids:        0.9999999998
  Total charge density g-space grids:           0.9999999998

  Overlap energy of the core charge distribution:               0.00005088936150
  Self energy of the core charge distribution:               -615.71576003586028
  Core Hamiltonian energy:                                    191.44418438520938
  Hartree energy:                                             247.94136909362720
  Exchange-correlation energy:                                -61.47332487932913
  Hartree-Fock Exchange energy:                               -18.13880668738527
  QM/MM Electrostatic energy:                                   0.57901118623978

  Total energy:                                              -255.36327604813678

  outer SCF iter =    1 RMS gradient =   0.48E-06 energy =       -255.3632760481
  outer SCF loop converged in   1 iterations or    8 steps

  Decoupling Energy:                                               0.0370730247
  Recoupling Energy:                                              -0.0063742875

 ENERGY| Total FORCE_EVAL ( QMMM ) energy [a.u.]:          -1061.235329411158318

 MD| ***************************************************************************
 MD| Step number                                                               2
 MD| Time [fs]                                                          2.000000
 MD| Conserved quantity [hartree]                            -0.842817774636E+03
 MD| ---------------------------------------------------------------------------
 MD|                                          Instantaneous             Averages
 MD| CPU time per MD step [s]                     40.407530            64.851620
 MD| Energy drift per atom [K]           0.112696744661E+02   0.563483723304E+01
 MD| Potential energy [hartree]         -0.106123532941E+04  -0.106059884299E+04
 MD| Total kinetic energy [hartree]      0.218417554775E+03   0.218459242086E+03
 MD| QM kinetic energy [hartree]         0.111578251268E+00   0.116462761370E+00
 MD| Total temperature [K]                       273.820490           273.872751
 MD| QM temperature [K]                          345.427284           360.548897
 MD| ***************************************************************************

  Translating the system in order to center the QM fragment in the QM box.

 Number of electrons:                                                        180
 Number of occupied orbitals:                                                 90
 Number of molecular orbitals:                                                90

 Number of orbital functions:                                               1067
 Number of independent orbital functions:                                   1067

 Extrapolation method: ASPC


 SCF WAVEFUNCTION OPTIMIZATION

  ----------------------------------- OT ---------------------------------------
  Minimizer      : DIIS                : direct inversion
                                         in the iterative subspace
                                         using   7 DIIS vectors
                                         safer DIIS on
  Preconditioner : FULL_ALL            : diagonalization, state selective
  Precond_solver : DEFAULT
  stepsize       :    0.15000000                  energy_gap     :    0.08000000
  eps_taylor     :   0.10000E-15                  max_taylor     :             4
  ----------------------------------- OT ---------------------------------------

  Step     Update method      Time    Convergence         Total energy    Change
  ------------------------------------------------------------------------------
  Decoupling Energy:                                               0.0371231405
  Recoupling Energy:                                              -0.0063748339
     1 OT DIIS     0.15E+00    4.4     0.00057316      -254.8840255331 -2.55E+02
  Decoupling Energy:                                               0.0371264133
  Recoupling Energy:                                              -0.0063748791
     2 OT DIIS     0.15E+00    1.0     0.00022569      -254.8871518642 -3.13E-03
  Decoupling Energy:                                               0.0371270575
  Recoupling Energy:                                              -0.0063748843
     3 OT DIIS     0.15E+00    1.0     0.00008231      -254.8877073257 -5.55E-04
  Decoupling Energy:                                               0.0371223476
  Recoupling Energy:                                              -0.0063748375
     4 OT DIIS     0.15E+00    1.0     0.00002759      -254.8877575569 -5.02E-05
  Decoupling Energy:                                               0.0371233150
  Recoupling Energy:                                              -0.0063748478
     5 OT DIIS     0.15E+00    1.0     0.00001042      -254.8877613681 -3.81E-06
  Decoupling Energy:                                               0.0371231661
  Recoupling Energy:                                              -0.0063748451
     6 OT DIIS     0.15E+00    1.0     0.00000442      -254.8877619567 -5.89E-07
  Decoupling Energy:                                               0.0371230849
  Recoupling Energy:                                              -0.0063748447
     7 OT DIIS     0.15E+00    1.0     0.00000136      -254.8877620480 -9.13E-08
  Decoupling Energy:                                               0.0371230873
  Recoupling Energy:                                              -0.0063748447
     8 OT DIIS     0.15E+00    1.0     0.00000059      -254.8877620589 -1.09E-08

  *** SCF run converged in     8 steps ***


  Electronic density on regular grids:       -180.0000000003       -0.0000000003
  Core density on regular grids:              180.9999999999       -0.0000000001
  Total charge density on r-space grids:        0.9999999996
  Total charge density g-space grids:           0.9999999996

  Overlap energy of the core charge distribution:               0.00005124541268
  Self energy of the core charge distribution:               -615.71576003586028
  Core Hamiltonian energy:                                    191.49126155097537
  Hartree energy:                                             247.90727910309113
  Exchange-correlation energy:                                -61.48094749796021
  Hartree-Fock Exchange energy:                               -18.14140224800580
  QM/MM Electrostatic energy:                                   1.05175582347808

  Total energy:                                              -254.88776205886904

  outer SCF iter =    1 RMS gradient =   0.59E-06 energy =       -254.8877620589
  outer SCF loop converged in   1 iterations or    8 steps

  Decoupling Energy:                                               0.0371230872
  Recoupling Energy:                                              -0.0063748447

 ENERGY| Total FORCE_EVAL ( QMMM ) energy [a.u.]:          -1082.045340393475954

 MD| ***************************************************************************
 MD| Step number                                                               3
 MD| Time [fs]                                                          3.000000
 MD| Conserved quantity [hartree]                            -0.846392349930E+03
 MD| ---------------------------------------------------------------------------
 MD|                                          Instantaneous             Averages
 MD| CPU time per MD step [s]                     40.774810            56.826017
 MD| Energy drift per atom [K]           0.454778255785E+01   0.527248567464E+01
 MD| Potential energy [hartree]         -0.108204534039E+04  -0.106774767546E+04
 MD| Total kinetic energy [hartree]      0.235652990464E+03   0.224190491545E+03
 MD| QM kinetic energy [hartree]         0.117356262551E+00   0.116760595097E+00
 MD| Total temperature [K]                       295.427798           281.057767
 MD| QM temperature [K]                          363.315024           361.470939
 MD| ***************************************************************************

  Translating the system in order to center the QM fragment in the QM box.

 Number of electrons:                                                        180
 Number of occupied orbitals:                                                 90
 Number of molecular orbitals:                                                90

 Number of orbital functions:                                               1067
 Number of independent orbital functions:                                   1067

 Extrapolation method: ASPC


 SCF WAVEFUNCTION OPTIMIZATION

  ----------------------------------- OT ---------------------------------------
  Minimizer      : DIIS                : direct inversion
                                         in the iterative subspace
                                         using   7 DIIS vectors
                                         safer DIIS on
  Preconditioner : FULL_ALL            : diagonalization, state selective
  Precond_solver : DEFAULT
  stepsize       :    0.15000000                  energy_gap     :    0.08000000
  eps_taylor     :   0.10000E-15                  max_taylor     :             4
  ----------------------------------- OT ---------------------------------------

  Step     Update method      Time    Convergence         Total energy    Change
  ------------------------------------------------------------------------------
  Decoupling Energy:                                               0.0371655122
  Recoupling Energy:                                              -0.0063753288
     1 OT DIIS     0.15E+00    4.4     0.00026650      -254.3373022028 -2.54E+02
  Decoupling Energy:                                               0.0371742005
  Recoupling Energy:                                              -0.0063754094
     2 OT DIIS     0.15E+00    1.0     0.00010687      -254.3379922034 -6.90E-04
  Decoupling Energy:                                               0.0371691928
  Recoupling Energy:                                              -0.0063753577
     3 OT DIIS     0.15E+00    1.0     0.00003989      -254.3381202974 -1.28E-04
  Decoupling Energy:                                               0.0371714414
  Recoupling Energy:                                              -0.0063753809
     4 OT DIIS     0.15E+00    1.0     0.00001258      -254.3381301460 -9.85E-06
  Decoupling Energy:                                               0.0371702629
  Recoupling Energy:                                              -0.0063753693
     5 OT DIIS     0.15E+00    1.0     0.00000529      -254.3381309807 -8.35E-07
  Decoupling Energy:                                               0.0371705267
  Recoupling Energy:                                              -0.0063753714
     6 OT DIIS     0.15E+00    1.0     0.00000187      -254.3381311147 -1.34E-07
  Decoupling Energy:                                               0.0371705369
  Recoupling Energy:                                              -0.0063753717
     7 OT DIIS     0.15E+00    1.0     0.00000064      -254.3381311330 -1.83E-08

  *** SCF run converged in     7 steps ***


  Electronic density on regular grids:       -179.9999999999        0.0000000001
  Core density on regular grids:              180.9999999999       -0.0000000001
  Total charge density on r-space grids:        1.0000000000
  Total charge density g-space grids:           1.0000000000

  Overlap energy of the core charge distribution:               0.00002358496970
  Self energy of the core charge distribution:               -615.71576003586028
  Core Hamiltonian energy:                                    191.34735411187114
  Hartree energy:                                             247.97607651507087
  Exchange-correlation energy:                                -61.44937543829288
  Hartree-Fock Exchange energy:                               -18.13042069156288
  QM/MM Electrostatic energy:                                   1.63397082081457

  Total energy:                                              -254.33813113298982

  outer SCF iter =    1 RMS gradient =   0.64E-06 energy =       -254.3381311330
  outer SCF loop converged in   1 iterations or    7 steps

  Decoupling Energy:                                               0.0371704693
  Recoupling Energy:                                              -0.0063753710

 ENERGY| Total FORCE_EVAL ( QMMM ) energy [a.u.]:          -1079.714053041304169

 MD| ***************************************************************************
 MD| Step number                                                               4
 MD| Time [fs]                                                          4.000000
 MD| Conserved quantity [hartree]                            -0.842113596397E+03
 MD| ---------------------------------------------------------------------------
 MD|                                          Instantaneous             Averages
 MD| CPU time per MD step [s]                     39.435623            52.478419
 MD| Energy drift per atom [K]           0.125938625492E+02   0.710282989328E+01
 MD| Potential energy [hartree]         -0.107971405304E+04  -0.107073926985E+04
 MD| Total kinetic energy [hartree]      0.237600456645E+03   0.227542982820E+03
 MD| QM kinetic energy [hartree]         0.148328556343E+00   0.124652585409E+00
 MD| Total temperature [K]                       297.869251           285.260638
 MD| QM temperature [K]                          459.199977           385.903199
 MD| ***************************************************************************

  Translating the system in order to center the QM fragment in the QM box.

 Number of electrons:                                                        180
 Number of occupied orbitals:                                                 90
 Number of molecular orbitals:                                                90

 Number of orbital functions:                                               1067
 Number of independent orbital functions:                                   1067

 Extrapolation method: ASPC


 SCF WAVEFUNCTION OPTIMIZATION

  ----------------------------------- OT ---------------------------------------
  Minimizer      : DIIS                : direct inversion
                                         in the iterative subspace
                                         using   7 DIIS vectors
                                         safer DIIS on
  Preconditioner : FULL_ALL            : diagonalization, state selective
  Precond_solver : DEFAULT
  stepsize       :    0.15000000                  energy_gap     :    0.08000000
  eps_taylor     :   0.10000E-15                  max_taylor     :             4
  ----------------------------------- OT ---------------------------------------

  Step     Update method      Time    Convergence         Total energy    Change
  ------------------------------------------------------------------------------
  Decoupling Energy:                                               0.0372101490
  Recoupling Energy:                                              -0.0063758441
     1 OT DIIS     0.15E+00    4.4     0.00032147      -253.7449306136 -2.54E+02
  Decoupling Energy:                                               0.0372073128
  Recoupling Energy:                                              -0.0063758032
     2 OT DIIS     0.15E+00    1.0     0.00013165      -253.7458487666 -9.18E-04
  Decoupling Energy:                                               0.0372092987
  Recoupling Energy:                                              -0.0063758206
     3 OT DIIS     0.15E+00    1.0     0.00006237      -253.7460075457 -1.59E-04
  Decoupling Energy:                                               0.0372088773
  Recoupling Energy:                                              -0.0063758162
     4 OT DIIS     0.15E+00    1.0     0.00002435      -253.7460386500 -3.11E-05
  Decoupling Energy:                                               0.0372096187
  Recoupling Energy:                                              -0.0063758219
     5 OT DIIS     0.15E+00    1.0     0.00000523      -253.7460411839 -2.53E-06
  Decoupling Energy:                                               0.0372093046
  Recoupling Energy:                                              -0.0063758193
     6 OT DIIS     0.15E+00    1.0     0.00000251      -253.7460413271 -1.43E-07
  Decoupling Energy:                                               0.0372093100
  Recoupling Energy:                                              -0.0063758192
     7 OT DIIS     0.15E+00    1.0     0.00000088      -253.7460413590 -3.19E-08

  *** SCF run converged in     7 steps ***


  Electronic density on regular grids:       -180.0000000000       -0.0000000000
  Core density on regular grids:              180.9999999999       -0.0000000001
  Total charge density on r-space grids:        0.9999999998
  Total charge density g-space grids:           0.9999999998

  Overlap energy of the core charge distribution:               0.00001841819079
  Self energy of the core charge distribution:               -615.71576003586028
  Core Hamiltonian energy:                                    191.22478074319375
  Hartree energy:                                             248.04792587072447
  Exchange-correlation energy:                                -61.41799906866449
  Hartree-Fock Exchange energy:                               -18.11952605119539
  QM/MM Electrostatic energy:                                   2.23451876463921

  Total energy:                                              -253.74604135897206

  outer SCF iter =    1 RMS gradient =   0.88E-06 energy =       -253.7460413590
  outer SCF loop converged in   1 iterations or    7 steps

  Decoupling Energy:                                               0.0372093343
  Recoupling Energy:                                              -0.0063758194

 ENERGY| Total FORCE_EVAL ( QMMM ) energy [a.u.]:          -1094.307011270944031

 MD| ***************************************************************************
 MD| Step number                                                               5
 MD| Time [fs]                                                          5.000000
 MD| Conserved quantity [hartree]                            -0.848389415593E+03
 MD| ---------------------------------------------------------------------------
 MD|                                          Instantaneous             Averages
 MD| CPU time per MD step [s]                     39.773311            49.937397
 MD| Energy drift per atom [K]           0.792354732299E+00   0.584073486109E+01
 MD| Potential energy [hartree]         -0.109430701127E+04  -0.107545281814E+04
 MD| Total kinetic energy [hartree]      0.245917595678E+03   0.231217905392E+03
 MD| QM kinetic energy [hartree]         0.157565520400E+00   0.131235172407E+00
 MD| Total temperature [K]                       308.296083           289.867727
 MD| QM temperature [K]                          487.796046           406.281768
 MD| ***************************************************************************

  Translating the system in order to center the QM fragment in the QM box.

 Number of electrons:                                                        180
 Number of occupied orbitals:                                                 90
 Number of molecular orbitals:                                                90

 Number of orbital functions:                                               1067
 Number of independent orbital functions:                                   1067

 Extrapolation method: ASPC


 SCF WAVEFUNCTION OPTIMIZATION

  ----------------------------------- OT ---------------------------------------
  Minimizer      : DIIS                : direct inversion
                                         in the iterative subspace
                                         using   7 DIIS vectors
                                         safer DIIS on
  Preconditioner : FULL_ALL            : diagonalization, state selective
  Precond_solver : DEFAULT
  stepsize       :    0.15000000                  energy_gap     :    0.08000000
  eps_taylor     :   0.10000E-15                  max_taylor     :             4
  ----------------------------------- OT ---------------------------------------

  Step     Update method      Time    Convergence         Total energy    Change
  ------------------------------------------------------------------------------
  Decoupling Energy:                                               0.0372438715
  Recoupling Energy:                                              -0.0063762157
     1 OT DIIS     0.15E+00    4.4     0.00049025      -253.1925079841 -2.53E+02
  Decoupling Energy:                                               0.0372418612
  Recoupling Energy:                                              -0.0063762255
     2 OT DIIS     0.15E+00    1.1     0.00019248      -253.1946634694 -2.16E-03
  Decoupling Energy:                                               0.0372397102
  Recoupling Energy:                                              -0.0063761957
     3 OT DIIS     0.15E+00    1.0     0.00008104      -253.1950220386 -3.59E-04
  Decoupling Energy:                                               0.0372398072
  Recoupling Energy:                                              -0.0063761979
     4 OT DIIS     0.15E+00    1.0     0.00002324      -253.1950809958 -5.90E-05
  Decoupling Energy:                                               0.0372388241
  Recoupling Energy:                                              -0.0063761874
     5 OT DIIS     0.15E+00    1.0     0.00000865      -253.1950836760 -2.68E-06
  Decoupling Energy:                                               0.0372394690
  Recoupling Energy:                                              -0.0063761927
     6 OT DIIS     0.15E+00    1.0     0.00000295      -253.1950840519 -3.76E-07
  Decoupling Energy:                                               0.0372392340
  Recoupling Energy:                                              -0.0063761905
     7 OT DIIS     0.15E+00    1.0     0.00000087      -253.1950840947 -4.28E-08

  *** SCF run converged in     7 steps ***


  Electronic density on regular grids:       -180.0000000000       -0.0000000000
  Core density on regular grids:              180.9999999999       -0.0000000001
  Total charge density on r-space grids:        0.9999999999
  Total charge density g-space grids:           0.9999999999

  Overlap energy of the core charge distribution:               0.00001843314031
  Self energy of the core charge distribution:               -615.71576003586028
  Core Hamiltonian energy:                                    191.21900643334942
  Hartree energy:                                             248.05849355349056
  Exchange-correlation energy:                                -61.40903998474876
  Hartree-Fock Exchange energy:                               -18.11645797751915
  QM/MM Electrostatic energy:                                   2.76865548340369

  Total energy:                                              -253.19508409474420

  outer SCF iter =    1 RMS gradient =   0.87E-06 energy =       -253.1950840947
  outer SCF loop converged in   1 iterations or    7 steps

  Decoupling Energy:                                               0.0372392236
  Recoupling Energy:                                              -0.0063761903

 ENERGY| Total FORCE_EVAL ( QMMM ) energy [a.u.]:          -1057.339965177719932

 MD| ***************************************************************************
 MD| Step number                                                               6
 MD| Time [fs]                                                          6.000000
 MD| Conserved quantity [hartree]                            -0.842900323509E+03
 MD| ---------------------------------------------------------------------------
 MD|                                          Instantaneous             Averages
 MD| CPU time per MD step [s]                     39.559577            48.207760
 MD| Energy drift per atom [K]           0.111144435481E+02   0.671968630892E+01
 MD| Potential energy [hartree]         -0.105733996518E+04  -0.107243400931E+04
 MD| Total kinetic energy [hartree]      0.214439641669E+03   0.228421528104E+03
 MD| QM kinetic energy [hartree]         0.141133377689E+00   0.132884873287E+00
 MD| Total temperature [K]                       268.833555           286.362032
 MD| QM temperature [K]                          436.924928           411.388962
 MD| ***************************************************************************

 -------------------------------------------------------------------------------
 -                                                                             -
 -                                DBCSR STATISTICS                             -
 -                                                                             -
 -------------------------------------------------------------------------------
 COUNTER                                    TOTAL       BLAS       SMM       ACC
 flops     9 x    26 x    26              2810808     100.0%      0.0%      0.0%
 flops     9 x    32 x    32              8515584     100.0%      0.0%      0.0%
 flops    26 x    26 x    26             14623232     100.0%      0.0%      0.0%
 flops    66 x    26 x    26             24984960     100.0%      0.0%      0.0%
 flops    26 x    26 x    32             35995648     100.0%      0.0%      0.0%
 flops    26 x    32 x    26             35995648     100.0%      0.0%      0.0%
 flops    32 x    26 x    26             35995648     100.0%      0.0%      0.0%
 flops    26 x    26 x   128             39975936     100.0%      0.0%      0.0%
 flops    62 x    26 x    26             46941440     100.0%      0.0%      0.0%
 flops    22 x    26 x    26             48928880     100.0%      0.0%      0.0%
 flops    66 x    26 x   128             55351296     100.0%      0.0%      0.0%
 flops    66 x    26 x    32             61501440     100.0%      0.0%      0.0%
 flops    66 x    32 x    26             61501440     100.0%      0.0%      0.0%
 flops    26 x    26 x   137             85573488     100.0%      0.0%      0.0%
 flops    32 x    32 x    26             88604672     100.0%      0.0%      0.0%
 flops    26 x    32 x    32             88604672     100.0%      0.0%      0.0%
 flops    32 x    26 x    32             88604672     100.0%      0.0%      0.0%
 flops    40 x    26 x    26             90854400     100.0%      0.0%      0.0%
 flops    22 x    26 x   128             92252160     100.0%      0.0%      0.0%
 flops    26 x    32 x   128             98402304     100.0%      0.0%      0.0%
 flops    32 x    26 x   128             98402304     100.0%      0.0%      0.0%
 flops    22 x    32 x    26            102502400     100.0%      0.0%      0.0%
 flops    22 x    26 x    32            102502400     100.0%      0.0%      0.0%
 flops    62 x    26 x   128            103993344     100.0%      0.0%      0.0%
 flops    62 x    26 x    32            115548160     100.0%      0.0%      0.0%
 flops    62 x    32 x    26            115548160     100.0%      0.0%      0.0%
 flops    66 x    26 x   137            118486368     100.0%      0.0%      0.0%
 flops    66 x    32 x   128            136249344     100.0%      0.0%      0.0%
 flops    66 x    32 x    32            151388160     100.0%      0.0%      0.0%
 flops     9 x     9 x    26            165405240     100.0%      0.0%      0.0%
 flops    31 x    26 x    26            176030400     100.0%      0.0%      0.0%
 flops    22 x    26 x   137            197477280     100.0%      0.0%      0.0%
 flops    40 x    26 x   128            201277440     100.0%      0.0%      0.0%
 flops    26 x    26 x   133            207687480     100.0%      0.0%      0.0%
 flops    26 x    32 x   137            210642432     100.0%      0.0%      0.0%
 flops    32 x    26 x   137            210642432     100.0%      0.0%      0.0%
 flops    32 x    32 x    32            218103808     100.0%      0.0%      0.0%
 flops    62 x    26 x   137            222610752     100.0%      0.0%      0.0%
 flops    40 x    32 x    26            223641600     100.0%      0.0%      0.0%
 flops    40 x    26 x    32            223641600     100.0%      0.0%      0.0%
 flops    22 x    32 x   128            227082240     100.0%      0.0%      0.0%
 flops    32 x    32 x   128            242221056     100.0%      0.0%      0.0%
 flops    62 x    32 x   128            255983616     100.0%      0.0%      0.0%
 flops    22 x    32 x    32            274391040     100.0%      0.0%      0.0%
 flops    62 x    32 x    32            284426240     100.0%      0.0%      0.0%
 flops    66 x    26 x   133            287567280     100.0%      0.0%      0.0%
 flops    66 x    32 x   137            291658752     100.0%      0.0%      0.0%
 flops    31 x    26 x   128            389975040     100.0%      0.0%      0.0%
 flops     9 x     9 x    32            407151360     100.0%      0.0%      0.0%
 flops    22 x     9 x    26            415855440     100.0%      0.0%      0.0%
 flops     9 x    22 x    26            416576160     100.0%      0.0%      0.0%
 flops    40 x    26 x   137            430859520     100.0%      0.0%      0.0%
 flops    31 x    32 x    26            433305600     100.0%      0.0%      0.0%
 flops    31 x    26 x    32            433305600     100.0%      0.0%      0.0%
 flops    22 x    26 x   133            479278800     100.0%      0.0%      0.0%
 flops    22 x    32 x   137            486097920     100.0%      0.0%      0.0%
 flops    40 x    32 x   128            495452160     100.0%      0.0%      0.0%
 flops    26 x    32 x   133            511230720     100.0%      0.0%      0.0%
 flops    32 x    26 x   133            511230720     100.0%      0.0%      0.0%
 flops    32 x    32 x   137            518504448     100.0%      0.0%      0.0%
 flops    62 x    26 x   133            540277920     100.0%      0.0%      0.0%
 flops    62 x    32 x   137            547964928     100.0%      0.0%      0.0%
 flops    40 x    32 x    32            550502400     100.0%      0.0%      0.0%
 flops    66 x    32 x   133            707857920     100.0%      0.0%      0.0%
 flops     9 x    26 x     9            802701900     100.0%      0.0%      0.0%
 flops    31 x    26 x   137            834790320     100.0%      0.0%      0.0%
 flops    31 x    32 x   128            959938560     100.0%      0.0%      0.0%
 flops    22 x     9 x    32           1023644160     100.0%      0.0%      0.0%
 flops     9 x    22 x    32           1025418240     100.0%      0.0%      0.0%
 flops    40 x    26 x   133           1045699200     100.0%      0.0%      0.0%
 flops    40 x    32 x   137           1060577280     100.0%      0.0%      0.0%
 flops    31 x    32 x    32           1066598400     100.0%      0.0%      0.0%
 flops    22 x    22 x    26           1109908800     100.0%      0.0%      0.0%
 flops    22 x    32 x   133           1179763200     100.0%      0.0%      0.0%
 flops    32 x    32 x   133           1258414080     100.0%      0.0%      0.0%
 flops    62 x    32 x   133           1329914880     100.0%      0.0%      0.0%
 flops     9 x    32 x     9           1975881600     100.0%      0.0%      0.0%
 flops    31 x    26 x   133           2026042200     100.0%      0.0%      0.0%
 flops    31 x    32 x   137           2054868480     100.0%      0.0%      0.0%
 flops    22 x    26 x     9           2081079000     100.0%      0.0%      0.0%
 flops     9 x    26 x    22           2081079000     100.0%      0.0%      0.0%
 flops    40 x    32 x   133           2574028800     100.0%      0.0%      0.0%
 flops    22 x    22 x    32           2732083200     100.0%      0.0%      0.0%
 flops    31 x    32 x   133           4987180800     100.0%      0.0%      0.0%
 flops    22 x    32 x     9           5122656000     100.0%      0.0%      0.0%
 flops     9 x    32 x    22           5122656000     100.0%      0.0%      0.0%
 flops    22 x    26 x    22           5395390000     100.0%      0.0%      0.0%
 flops    22 x    32 x    22          13280960000     100.0%      0.0%      0.0%
 flops inhomo. stacks                  1841132160     100.0%      0.0%      0.0%
 flops total                        78.518963E+09     100.0%      0.0%      0.0%
 flops max/rank                      3.660240E+09     100.0%      0.0%      0.0%
 matmuls inhomo. stacks                      5544     100.0%      0.0%      0.0%
 matmuls total                            3115872     100.0%      0.0%      0.0%
 number of processed stacks                817128     100.0%      0.0%      0.0%
 average stack size                                     3.8       0.0       0.0
 marketing flops                    85.709742E+09
 -------------------------------------------------------------------------------
 # multiplications                           1312
 max memory usage/rank               2.339852E+09
 # max total images/rank                        1
 # max 3D layers                                1
 # MPI messages exchanged                 1175552
 MPI messages size (bytes):
  total size                        26.094690E+09
  min size                           0.000000E+00
  max size                         150.152000E+03
  average size                      22.197818E+03
 MPI breakdown and total messages size (bytes):
             size <=      128              770581                        0
       128 < size <=     8192               70203                505471008
      8192 < size <=    32768               83300               2394641760
     32768 < size <=   131072              118727               4280966144
    131072 < size <=  4194304              132741              18914201880
   4194304 < size <= 16777216                   0                        0
  16777216 < size                               0                        0
 -------------------------------------------------------------------------------
 -                                                                             -
 -                      DBCSR MESSAGE PASSING PERFORMANCE                      -
 -                                                                             -
 -------------------------------------------------------------------------------
 ROUTINE             CALLS      AVE VOLUME [Bytes]
 MP_Bcast               89                     12.
 MP_Allreduce         7056                      8.
 MP_Alltoall          5396                  12748.
 MP_ISend            41956                  13191.
 MP_IRecv            41956                  12625.
 -------------------------------------------------------------------------------

 -------------------------------------------------------------------------------
 -                                                                             -
 -                                GRID STATISTICS                              -
 -                                                                             -
 -------------------------------------------------------------------------------
 LP    KERNEL             BACKEND                              COUNT     PERCENT
 2     collocate ortho    REF                                1126269      19.05%
 2     integrate ortho    REF                                1106014      18.71%
 1     collocate ortho    REF                                 943978      15.97%
 1     integrate ortho    REF                                 870340      14.72%
 3     integrate ortho    REF                                 570062       9.64%
 3     collocate ortho    REF                                 500530       8.47%
 0     collocate ortho    REF                                 281245       4.76%
 0     integrate ortho    REF                                 249988       4.23%
 4     integrate ortho    REF                                 121240       2.05%
 4     collocate ortho    REF                                  73823       1.25%
 0     collocate general  REF                                  30464       0.52%
 1     integrate general  REF                                  30464       0.52%
 5     integrate ortho    REF                                   8201       0.14%
 -------------------------------------------------------------------------------

 MEMORY| Estimated peak process memory [MiB]                                2268

 -------------------------------------------------------------------------------
 -                                                                             -
 -                         MESSAGE PASSING PERFORMANCE                         -
 -                                                                             -
 -------------------------------------------------------------------------------

 ROUTINE             CALLS      AVE VOLUME [Bytes]
 MP_Group                8
 MP_Bcast             6942               10565479.
 MP_Allreduce         2477                1659285.
 MP_Sync               437
 MP_Alltoall          1344               17978175.
 MP_ISendRecv        26019                  64431.
 MP_Wait             33670
 MP_comm_split          21
 MP_ISend             6475                 556371.
 MP_IRecv             6468                 556115.
 MP_Recv                49                 102432.
 -------------------------------------------------------------------------------


 -------------------------------------------------------------------------------
 -                                                                             -
 -                           R E F E R E N C E S                               -
 -                                                                             -
 -------------------------------------------------------------------------------
 
 CP2K version 8.2, the CP2K developers group (2021).
 CP2K is freely available from https://www.cp2k.org/ .

 Kuehne,Thomas D.; Iannuzzi,Marcella; Del Ben,Mauro;
 Rybkin,Vladimir V.; Seewald,Patrick; Stein,Frederick; Laino,Teodoro;
 Khaliullin,Rustam Z.; Schuett,Ole; Schiffmann,Florian; Golze,Dorothea;
 Wilhelm,Jan; Chulkov,Sergey; Bani-Hashemian,Mohammad Hossein;
 Weber,Valery; Borstnik,Urban; Taillefumier,Mathieu;
 Jakobovits,Alice Shoshana; Lazzaro,Alfio; Pabst,Hans; Mueller,Tiziano;
 Schade,Robert; Guidon,Manuel; Andermatt,Samuel; Holmberg,Nico;
 Schenter,Gregory K.; Hehn,Anna; Bussy,Augustin; Belleflamme,Fabian;
 Tabacchi,Gloria; Gloess,Andreas; Lass,Michael; Bethune,Iain;
 Mundy,Christopher J.; Plessl,Christian; Watkins,Matt;
 VandeVondele,Joost; Krack,Matthias; Hutter,Juerg. 
 The Journal of Chemical Physics, 152 (19), (2020). 
 CP2K: An electronic structure and molecular dynamics software package -
 Quickstep: Efficient and accurate electronic structure calculations.
 https://doi.org/10.1063/5.0007045

 Schuett, Ole; Messmer, Peter; Hutter, Juerg; VandeVondele, Joost. 
 Electronic Structure Calculations on Graphics Processing Units, John
 Wiley & Sons, Ltd, 173-190 (2016). 
 GPU-Accelerated Sparse Matrix-Matrix Multiplication for
 Linear Scaling Density Functional Theory.
 https://doi.org/10.1002/9781118670712.ch8

 Borstnik, U; VandeVondele, J; Weber, V; Hutter, J. 
 PARALLEL COMPUTING, 40 (5-6), 47-58 (2014). 
 Sparse matrix multiplication: The distributed block-compressed sparse
 row library.
 https://doi.org/10.1016/j.parco.2014.03.012

 Hutter, J; Iannuzzi, M; Schiffmann, F; VandeVondele, J. 
 WIREs Comput Mol Sci., 4 (1), 15-25 (2014). 
 CP2K: atomistic simulations of condensed matter systems.
 https://doi.org/10.1002/wcms.1159

 Marek, A; Blum, V; Johanni, R; Havu, V; Lang, B; Auckenthaler, T;
 Heinecke, A; Bungartz, H; Lederer, H. 
 Journal of Physics: Condensed Matter, 26 (21), (2014). 
 The ELPA library: scalable parallel eigenvalue solutions for
 electronic structure
 theory and computational science.
 https://doi.org/10.1088/0953-8984/26/21/213201

 Guidon, M; Hutter, J; VandeVondele, J. 
 JOURNAL OF CHEMICAL THEORY AND COMPUTATION, 5 (11), 3010-3021 (2009). 
 Robust Periodic Hartree-Fock Exchange for Large-Scale Simulations Using
 Gaussian Basis Sets.
 https://doi.org/10.1021/ct900494g

 Guidon, M; Schiffmann, F; Hutter, J; VandeVondele, J. 
 JOURNAL OF CHEMICAL PHYSICS, 128 (21), 214104 (2008). 
 Ab initio molecular dynamics using hybrid density functionals.
 https://doi.org/10.1063/1.2931945

 Kuhne, TD; Krack, M; Mohamed, FR; Parrinello, M. 
 PHYSICAL REVIEW LETTERS, 98 (6), 066401 (2007). 
 Efficient and accurate Car-Parrinello-like approach to
 Born-Oppenheimer molecular dynamics.
 https://doi.org/10.1103/PhysRevLett.98.066401

 Laino, T; Mohamed, F; Laio, A; Parrinello, M. 
 JOURNAL OF CHEMICAL THEORY AND COMPUTATION, 2 (5), 1370-1378 (2006). 
 An efficient linear-scaling electrostatic coupling for treating
 periodic boundary conditions in QM/MM simulations.
 https://doi.org/10.1021/ct6001169

 Laino, T; Mohamed, F; Laio, A; Parrinello, M. 
 JOURNAL OF CHEMICAL THEORY AND COMPUTATION, 1 (6), 1176-1184 (2005). 
 An efficient real space multigrid QM/MM electrostatic coupling.
 https://doi.org/10.1021/ct050123f

 Krack, M. 
 THEORETICAL CHEMISTRY ACCOUNTS, 114 (1-3), 145-152 (2005). 
 Pseudopotentials for H to Kr optimized for gradient-corrected
 exchange-correlation functionals.
 https://doi.org/10.1007/s00214-005-0655-y

 VandeVondele, J; Krack, M; Mohamed, F; Parrinello, M; Chassaing, T;
 Hutter, J. COMPUTER PHYSICS COMMUNICATIONS, 167 (2), 103-128 (2005). 
 QUICKSTEP: Fast and accurate density functional calculations using a
 mixed Gaussian and plane waves approach.
 https://doi.org/10.1016/j.cpc.2004.12.014

 Frigo, M; Johnson, SG. 
 PROCEEDINGS OF THE IEEE, 93 (2), 216-231 (2005). 
 The design and implementation of FFTW3.
 https://doi.org/10.1109/JPROC.2004.840301

 Kolafa, J. 
 JOURNAL OF COMPUTATIONAL CHEMISTRY, 25 (3), 335-342 (2004). 
 Time-reversible always stable predictor-corrector method for molecular dynamics of polarizable molecules.
 https://doi.org/10.1002/jcc.10385

 VandeVondele, J; Hutter, J. 
 JOURNAL OF CHEMICAL PHYSICS, 118 (10), 4365-4369 (2003). 
 An efficient orbital transformation method for electronic structure
 calculations.
 https://doi.org/10.1063/1.1543154

 Hartwigsen, C; Goedecker, S; Hutter, J. 
 PHYSICAL REVIEW B, 58 (7), 3641-3662 (1998). 
 Relativistic separable dual-space Gaussian pseudopotentials from H to Rn.
 https://doi.org/10.1103/PhysRevB.58.3641

 Lippert, G; Hutter, J; Parrinello, M. 
 MOLECULAR PHYSICS, 92 (3), 477-487 (1997). 
 A hybrid Gaussian and plane wave density functional scheme.
 https://doi.org/10.1080/002689797170220

 Perdew, JP; Burke, K; Ernzerhof, M. 
 PHYSICAL REVIEW LETTERS, 77 (18), 3865-3868 (1996). 
 Generalized gradient approximation made simple.
 https://doi.org/10.1103/PhysRevLett.77.3865

 Goedecker, S; Teter, M; Hutter, J. 
 PHYSICAL REVIEW B, 54 (3), 1703-1710 (1996). 
 Separable dual-space Gaussian pseudopotentials.
 https://doi.org/10.1103/PhysRevB.54.1703

 ESSMANN, U; PERERA, L; BERKOWITZ, ML; DARDEN, T; LEE, H; PEDERSEN, LG. 
 JOURNAL OF CHEMICAL PHYSICS, 103 (19), 8577-8593 (1995). 
 A SMOOTH PARTICLE MESH EWALD METHOD.
 https://doi.org/10.1063/1.470117

 BLOCHL, PE. 
 JOURNAL OF CHEMICAL PHYSICS, 103 (17), 7422-7428 (1995). 
 ELECTROSTATIC DECOUPLING OF PERIODIC IMAGES OF PLANE-WAVE-EXPANDED
 DENSITIES AND DERIVED ATOMIC POINT CHARGES.
 https://doi.org/10.1063/1.470314


 -------------------------------------------------------------------------------
 -                                                                             -
 -                                T I M I N G                                  -
 -                                                                             -
 -------------------------------------------------------------------------------
 SUBROUTINE                       CALLS  ASD         SELF TIME        TOTAL TIME
                                MAXIMUM       AVERAGE  MAXIMUM  AVERAGE  MAXIMUM
 CP2K                                 1  1.0    0.452    0.467  336.243  336.244
 qs_mol_dyn_low                       1  2.0    0.215    0.219  290.274  291.753
 velocity_verlet                      6  3.0    0.048    0.052  241.298  241.339
 qs_forces                            7  3.9    0.019    0.020  162.955  162.956
 rebuild_ks_matrix                   63  8.5    0.001    0.001  147.394  147.408
 qs_ks_build_kohn_sham_matrix        63  9.5    0.036    0.038  147.393  147.407
 hfx_ks_matrix                       63 10.5    0.004    0.005  121.729  121.753
 qs_energies                          7  4.9    0.029    0.030   88.232   88.233
 scf_env_do_scf                       7  5.9    0.000    0.001   85.076   85.076
 qs_ks_update_qs_env_forces           7  4.9    0.000    0.000   74.613   74.615
 qs_ks_update_qs_env                 63  7.8    0.001    0.002   72.789   72.801
 derivatives_four_center              7  8.9    0.017    0.284   68.358   68.359
 derivatives_four_center_main         7  9.9    0.163    0.352   67.913   67.914
 derivatives_four_center_bin        657 10.9   66.678   67.644   66.678   67.644
 qmmm_forces                          7  3.9    0.027    0.028   65.049   65.050
 qmmm_forces_with_gaussian            7  4.9    1.226    1.243   63.169   64.474
 qmmm_el_coupling                     7  3.9    0.000    0.008   54.082   54.511
 qmmm_elec_with_gaussian              7  4.9    1.113    1.157   54.077   54.505
 integrate_four_center               63 11.5    3.103    3.734   53.362   53.384
 scf_env_do_scf_inner_loop           56  6.8    0.017    0.019   51.464   51.497
 integrate_four_center_main          63 12.5    0.111    0.183   46.123   47.020
 integrate_four_center_bin         4127 13.5   46.011   46.885   46.011   46.885
 qmmm_env_create                      1  2.0    7.771    7.870   43.976   43.976
 init_scf_loop                        7  6.9    0.002    0.003   33.595   33.616
 fist_init                            1  3.0    0.022    0.034   32.192   32.192
 qmmm_force_with_gaussian_low         7  5.9    0.000    0.000   31.178   31.655
 qmmm_elec_with_gaussian_low          7  5.9    0.000    0.000   26.080   27.472
 qmmm_forces_gaussian_low_R           7  6.9    0.000    0.000   25.616   25.882
 qmmm_forces_with_gaussian_LG         7  7.9   25.616   25.882   25.616   25.882
 pw_integral_ab                    2967  7.5   24.043   25.400   24.163   25.506
 pw_restrict_s3                      21  5.9    4.391    4.671   24.348   25.482
 qmmm_elec_gaussian_low_R             7  6.9    0.000    0.001   19.554   20.881
 qmmm_elec_with_gaussian_LG           7  7.9   19.553   20.881   19.553   20.881
 pw_transfer                       1337 12.0    0.114    0.133   18.378   19.419
 fft_wrap_pw1pw2                   1113 13.1    0.013    0.015   17.987   19.025
 qmmm_elec_with_gaussian:spline       7  5.9    0.000    0.000   18.113   18.538
 pw_prolongate_s3                    21  6.9    3.223    3.406   18.113   18.538
 fft_wrap_pw1pw2_200                707 14.4    1.892    1.955   17.210   18.256
 mp_sum_dm3                          38  5.7   15.918   17.032   15.918   17.032
 rdparm_amber_8                       2  6.5   12.756   12.933   16.486   16.500
 force_field_control                  1  4.0    0.041    0.064   16.226   16.265
 topology_control                     1  4.0    0.008    0.018   15.656   15.826
 fft3d_ps                          1113 15.1    6.785    6.952   14.138   15.298
 qs_vxc_create                       63 10.5    0.003    0.004   14.951   14.952
 xc_vxc_pw_create                    63 11.5    0.325    0.364   14.948   14.949
 qs_rho_update_rho                   63  7.9    0.001    0.002   11.204   11.212
 calculate_rho_elec                  63  8.9    0.117    0.117   11.202   11.210
 connectivity_control                 2  4.0    0.028    0.029    9.646    9.647
 read_connectivity_amber              1  6.0    0.001    0.001    9.465    9.467
 force_field_pack                     1  5.0    0.053    0.067    9.041    9.081
 density_rs2pw                       63  9.9    0.003    0.004    7.394    8.775
 rs_pw_transfer                     546 11.8    0.011    0.012    6.751    8.126
 xc_rho_set_and_dset_create          63 12.5    0.159    0.169    6.939    7.632
 mp_alltoall_z22v                  1113 17.1    5.746    7.048    5.746    7.048
 read_force_field_amber               1  5.0    0.012    0.012    7.033    7.047
 -------------------------------------------------------------------------------

 The number of warnings for this run is : 0
 
 -------------------------------------------------------------------------------
  **** **** ******  **  PROGRAM ENDED AT                 2021-09-01 11:32:30.048
 ***** ** ***  *** **   PROGRAM RAN ON                                 nid001927
 **    ****   ******    PROGRAM RAN BY                                     hjbio
 ***** **    ** ** **   PROGRAM PROCESS ID                                 12460
  **** **  *******  **  PROGRAM STOPPED IN /lus/cls01095/work/d118/d118/hjbio/qm
                                           mm-benchmarking/archer2/CPU/cp2kMD/CB
                                           D_PHY-PBE0/6STEPS/2NODES/128CPN/4THRE
                                           ADS
