 DBCSR| CPU Multiplication driver                                           BLAS
 DBCSR| Multrec recursion limit                                              512
 DBCSR| Multiplication stack size                                           1000
 DBCSR| Maximum elements for images                                    UNLIMITED
 DBCSR| Multiplicative factor virtual images                                   1
 DBCSR| Use multiplication densification                                       T
 DBCSR| Multiplication size stacks                                             3
 DBCSR| Use memory pool for CPU allocation                                     F
 DBCSR| Number of 3D layers                                               SINGLE
 DBCSR| Use MPI memory allocation                                              F
 DBCSR| Use RMA algorithm                                                      F
 DBCSR| Use Communication thread                                               T
 DBCSR| Communication thread load                                             87
 DBCSR| MPI: My node id                                                        0
 DBCSR| MPI: Number of nodes                                                  32
 DBCSR| OMP: Current number of threads                                         1
 DBCSR| OMP: Max number of threads                                             1
 DBCSR| Split modifier for TAS multiplication algorithm                  1.0E+00


  **** **** ******  **  PROGRAM STARTED AT               2021-09-06 14:43:35.646
 ***** ** ***  *** **   PROGRAM STARTED ON                             nid001136
 **    ****   ******    PROGRAM STARTED BY                                 hjbio
 ***** **    ** ** **   PROGRAM PROCESS ID                                152411
  **** **  *******  **  PROGRAM STARTED IN /lus/cls01095/work/d118/d118/hjbio/qm
                                           mm-benchmarking/archer2/CPU/cp2kMD/CB
                                           D_PHY/6STEPS/1NODES/32CPN/1THREADS

 CP2K| version string:                                          CP2K version 8.2
 CP2K| source code revision number:                                  git:310b7ab
 CP2K| cp2kflags: omp libint fftw3 libxc elpa parallel mpi3 scalapack plumed2   
 CP2K| is freely available from                            https://www.cp2k.org/
 CP2K| Program compiled at                          Thu 10 Jun 17:43:51 BST 2021
 CP2K| Program compiled on                                                 uan01
 CP2K| Program compiled for                                              ARCHER2
 CP2K| Data directory path              /work/d118/d118/hjbio/CP2K/cp2k-8.2/data
 CP2K| Input file name                                          CBD_PHY-cp2k.inp

 GLOBAL| Force Environment number                                              1
 GLOBAL| Basis set file name                                        BASIS_MOLOPT
 GLOBAL| Potential file name                                           POTENTIAL
 GLOBAL| MM Potential file name                                     MM_POTENTIAL
 GLOBAL| Coordinate file name                                        CBD_PHY.pdb
 GLOBAL| Method name                                                        CP2K
 GLOBAL| Project name                                                CBD_PHY-PBE
 GLOBAL| Run type                                                             MD
 GLOBAL| FFT library                                                       FFTW3
 GLOBAL| Diagonalization library                                            ELPA
 GLOBAL| Minimum number of eigenvectors for ELPA usage                        16
 GLOBAL| Orthonormality check for eigenvectors                          DISABLED
 GLOBAL| Matrix multiplication library                                    SCALAP
 GLOBAL| All-to-all communication in single precision                          F
 GLOBAL| FFTs using library dependent lengths                                  F
 GLOBAL| Grid backend                                                       AUTO
 GLOBAL| Global print level                                                  LOW
 GLOBAL| MPI I/O enabled                                                       T
 GLOBAL| Total number of message passing processes                            32
 GLOBAL| Number of threads for this process                                    1
 GLOBAL| This output is from process                                           0
 GLOBAL| CPU model name                          AMD EPYC 7742 64-Core Processor
 GLOBAL| CPUID                                                              1002

 MEMORY| system memory details [Kb]
 MEMORY|                        rank 0           min           max       average
 MEMORY| MemTotal            263568576     263568576     263568576     263568576
 MEMORY| MemFree             246874412     246874412     246874412     246874412
 MEMORY| Buffers                207652        207652        207652        207652
 MEMORY| Cached                4189992       4189992       4189992       4189992
 MEMORY| Slab                  2131132       2131132       2131132       2131132
 MEMORY| SReclaimable           247320        247320        247320        247320
 MEMORY| MemLikelyFree       251519376     251519376     251519376     251519376



                      ************* ******** ***********   
                     ************* **********************  
                     ****     **** ****      ***********   
                     ******** ****  *******     ****       
                     *******  ****   *******   ****        
                     ****     ****       ****  ****        
                     ****     **** **********  ****        
                      ****     **** ********    ****       
                     FRONTIERS IN SIMULATION TECHNOLOGY    
                                                           
                        C.J. Mundy, S. Balasubramanian,    
                     Ken Bagchi, J. Hutter, Ari Seitsonen  
                      IFW Kuo, T. Laino, J. VandeVondele   
                                 Version 1.0               

                                                           


 EWALD| Summation is done by:                                               SPME
 EWALD| Alpha parameter [       ANGSTROM^-1]                              0.4000
 EWALD| Real Space Cutoff [          ANGSTROM]                            8.4348
 EWALD| G-space max. Miller index                         80        80        80
 EWALD| Spline interpolation order                                             6

 FORCEFIELD| WARNING: A non Critical ForceField parameter is missing! CP2K GOES!
 FORCEFIELD| Non critical parameters are:Urey-Bradley,Torsions,Impropers, Opbends and 1-4
 FORCEFIELD| All missing parameters will not contribute to the potential energy!
 FORCEFIELD| Activate the print key FF_INFO to have a list of missing parameters

 CHARGE_INFO| Total Charge of the Classical System:                    -0.825808

 SPLINE_INFO| Generating 101926 splines for NONBONDED14 interactions 
              Due to 451 different atomic kinds
  ...10192  ...20384  ...30576  ...40768  ...50960  ...61152  ...71344  ...81536  ...91728  ...101920
 SPLINE_INFO| Number of unique splines computed:            301
 SPLINE_INFO| Done

 SPLINE_INFO| Generating 101926 splines for NONBONDED interactions 
              Due to 451 different atomic kinds
  ...10192  ...20384  ...30576  ...40768  ...50960  ...61152  ...71344  ...81536  ...91728  ...101920
 SPLINE_INFO| Number of unique splines computed:            301
 SPLINE_INFO| Done

 *******************************************************************************
 *******************************************************************************
 **                                                                           **
 **     #####                         ##              ##                      **
 **    ##   ##            ##          ##              ##                      **
 **   ##     ##                       ##            ######                    **
 **   ##     ##  ##   ##  ##   #####  ##  ##   ####   ##    #####    #####    **
 **   ##     ##  ##   ##  ##  ##      ## ##   ##      ##   ##   ##  ##   ##   **
 **   ##  ## ##  ##   ##  ##  ##      ####     ###    ##   ######   ######    **
 **    ##  ###   ##   ##  ##  ##      ## ##      ##   ##   ##       ##        **
 **     #######   #####   ##   #####  ##  ##  ####    ##    #####   ##        **
 **           ##                                                    ##        **
 **                                                                           **
 **                                                ... make the atoms dance   **
 **                                                                           **
 **            Copyright (C) by CP2K developers group (2000-2021)             **
 **                      J. Chem. Phys. 152, 194103 (2020)                    **
 **                                                                           **
 *******************************************************************************


 TOTAL NUMBERS AND MAXIMUM NUMBERS

  Total number of            - Atomic kinds:                                   5
                             - Atoms:                                         68
                             - Shell sets:                                    68
                             - Shells:                                       274
                             - Primitive Cartesian functions:                476
                             - Cartesian basis functions:                    655
                             - Spherical basis functions:                    620

  Maximum angular momentum of- Orbital basis functions:                        2
                             - Local part of the GTH pseudopotential:          2
                             - Non-local part of the GTH pseudopotential:      0


 SCF PARAMETERS         Density guess:                                   RESTART
                        --------------------------------------------------------
                        max_scf:                                             300
                        max_scf_history:                                       0
                        max_diis:                                              4
                        --------------------------------------------------------
                        eps_scf:                                        1.00E-06
                        eps_scf_history:                                0.00E+00
                        eps_diis:                                       1.00E-01
                        eps_eigval:                                     1.00E-05
                        --------------------------------------------------------
                        level_shift [a.u.]:                                 0.00
                        --------------------------------------------------------
                        No outer SCF

 *******************************************************************************
 *******************************************************************************
 **                                                                           **
 **             #######  ##     ## ##     ## ##     ##                        **
 **            ##     ## ###   ### ###   ### ###   ###                        **
 **            ##     ## #### #### #### #### #### ####                        **
 **            ##     ## ## ### ## ## ### ## ## ### ##                        **
 **            ##  ## ## ##     ## ##     ## ##     ##                        **
 **            ##    ##  ##     ## ##     ## ##     ##  T.Laino and F.Mohamed **
 **             ##### ## ##     ## ##     ## ##     ##  2005 - 2015           **
 **                                                                           **
 **                                                     Calculation Started.. **
 *******************************************************************************
 *******************************************************************************

 MD_PAR| Molecular dynamics protocol (MD input parameters)
 MD_PAR| Ensemble type                                                       NVE
 MD_PAR| Number of time steps                                                  6
 MD_PAR| Time step [fs]                                                 1.000000
 MD_PAR| Temperature [K]                                              300.000000
 MD_PAR| Temperature tolerance [K]                                      0.000000
 MD_PAR| Print MD information every                                    1 step(s)
 MD_PAR| File type   Print frequency [steps]                          File names
 MD_PAR| Coordinates          1                            CBD_PHY-PBE-pos-1.xyz
 MD_PAR| Velocities           1                            CBD_PHY-PBE-vel-1.xyz
 MD_PAR| Energies             1                               CBD_PHY-PBE-1.ener
 MD_PAR| Dump                20                            CBD_PHY-PBE-1.restart

 ROT| Rotational analysis information
 ROT| Principal axes and moments of inertia [a.u.]
 ROT|                           1                   2                   3
 ROT| Eigenvalues      1.56283164001E+13   1.56407408488E+13   1.56663418804E+13
 ROT|      x              0.901637047331     -0.018153263569      0.432112362589
 ROT|      y              0.323714777231      0.690893927917     -0.646431994388
 ROT|      z             -0.286808957117      0.722728191915      0.628812040859
 ROT| Number of rotovibrational vectors                                        6

 DOF| Calculation of degrees of freedom
 DOF| Number of atoms                                                     167923
 DOF| Number of intramolecular constraints                                     0
 DOF| Number of intermolecular constraints                                     0
 DOF| Invariants (translations + rotations)                                    3
 DOF| Degrees of freedom                                                  503766

 DOF| Restraints information
 DOF| Number of intramolecular restraints                                      0
 DOF| Number of intermolecular restraints                                      0

 MD_VEL| Velocities initialization
 MD_VEL| Initial temperature [K]                                      300.000000
 MD_VEL| COM velocity            -0.0000000000     0.0000000000     0.0000000000

  Translating the system in order to center the QM fragment in the QM box.

 Number of electrons:                                                        180
 Number of occupied orbitals:                                                 90
 Number of molecular orbitals:                                                90

 Number of orbital functions:                                                620
 Number of independent orbital functions:                                    620

 Extrapolation method: initial_guess


 SCF WAVEFUNCTION OPTIMIZATION

  ----------------------------------- OT ---------------------------------------
  Minimizer      : DIIS                : direct inversion
                                         in the iterative subspace
                                         using   7 DIIS vectors
                                         safer DIIS on
  Preconditioner : FULL_ALL            : diagonalization, state selective
  Precond_solver : DEFAULT
  stepsize       :    0.15000000                  energy_gap     :    0.08000000
  eps_taylor     :   0.10000E-15                  max_taylor     :             4
  ----------------------------------- OT ---------------------------------------

  Step     Update method      Time    Convergence         Total energy    Change
  ------------------------------------------------------------------------------
  Decoupling Energy:                                               0.0370860478
  Recoupling Energy:                                              -0.0063743250
     1 OT DIIS     0.15E+00    4.2     0.00001021      -256.0303947307 -2.56E+02
  Decoupling Energy:                                               0.0370861868
  Recoupling Energy:                                              -0.0063743257
     2 OT DIIS     0.15E+00    4.5     0.00000510      -256.0303952932 -5.63E-07
  Decoupling Energy:                                               0.0370855967
  Recoupling Energy:                                              -0.0063743192
     3 OT DIIS     0.15E+00    4.5     0.00000563      -256.0303953566 -6.34E-08
  Decoupling Energy:                                               0.0370861480
  Recoupling Energy:                                              -0.0063743254
     4 OT DIIS     0.15E+00    4.5     0.00000160      -256.0303954144 -5.78E-08
  Decoupling Energy:                                               0.0370859312
  Recoupling Energy:                                              -0.0063743228
     5 OT DIIS     0.15E+00    4.4     0.00000021      -256.0303954186 -4.15E-09

  *** SCF run converged in     5 steps ***


  Electronic density on regular grids:       -179.9999999994        0.0000000006
  Core density on regular grids:              180.9999999999       -0.0000000001
  Total charge density on r-space grids:        1.0000000005
  Total charge density g-space grids:           1.0000000005

  Overlap energy of the core charge distribution:               0.00001951532734
  Self energy of the core charge distribution:               -615.71576003586028
  Core Hamiltonian energy:                                    191.69815043189868
  Hartree energy:                                             247.57404800385066
  Exchange-correlation energy:                                -79.63275546513570
  QM/MM Electrostatic energy:                                   0.04590213136151

  Total energy:                                              -256.03039541855776
  Decoupling Energy:                                               0.0370859744
  Recoupling Energy:                                              -0.0063743233

 ENERGY| Total FORCE_EVAL ( QMMM ) energy [a.u.]:          -1088.195362349252036

 MD_INI| MD initialization
 MD_INI| Potential energy [hartree]                          -0.108819536235E+04
 MD_INI| Total kinetic energy [hartree]                       0.239300084734E+03
 MD_INI| QM kinetic energy [hartree]                          0.106639360339E+00
 MD_INI| Total temperature [K]                                        300.000000
 MD_INI| QM temperature [K]                                           330.137318
 MD_INI| Cell volume [bohr^3]                                 1.137316355424E+07
 MD_INI| Cell volume [ang^3]                                  1.685328937712E+06
 MD_INI| Cell lengths [bohr]      2.24884969E+02  2.24884969E+02  2.24884969E+02
 MD_INI| Cell lengths [ang]       1.19004000E+02  1.19004000E+02  1.19004000E+02
 MD_INI| Cell angles [deg]        9.00000000E+01  9.00000000E+01  9.00000000E+01

  Translating the system in order to center the QM fragment in the QM box.

 Number of electrons:                                                        180
 Number of occupied orbitals:                                                 90
 Number of molecular orbitals:                                                90

 Number of orbital functions:                                                620
 Number of independent orbital functions:                                    620

 Extrapolation method: ASPC


 SCF WAVEFUNCTION OPTIMIZATION

  ----------------------------------- OT ---------------------------------------
  Minimizer      : DIIS                : direct inversion
                                         in the iterative subspace
                                         using   7 DIIS vectors
                                         safer DIIS on
  Preconditioner : FULL_ALL            : diagonalization, state selective
  Precond_solver : DEFAULT
  stepsize       :    0.15000000                  energy_gap     :    0.08000000
  eps_taylor     :   0.10000E-15                  max_taylor     :             4
  ----------------------------------- OT ---------------------------------------

  Step     Update method      Time    Convergence         Total energy    Change
  ------------------------------------------------------------------------------
  Decoupling Energy:                                               0.0371104025
  Recoupling Energy:                                              -0.0063745549
     1 OT DIIS     0.15E+00    3.5     0.00092537      -255.8029313637 -2.56E+02
  Decoupling Energy:                                               0.0371210906
  Recoupling Energy:                                              -0.0063746935
     2 OT DIIS     0.15E+00    4.5     0.00041587      -255.8072240295 -4.29E-03
  Decoupling Energy:                                               0.0371277550
  Recoupling Energy:                                              -0.0063747956
     3 OT DIIS     0.15E+00    4.5     0.00037228      -255.8077199029 -4.96E-04
  Decoupling Energy:                                               0.0371212852
  Recoupling Energy:                                              -0.0063746999
     4 OT DIIS     0.15E+00    4.4     0.00014957      -255.8079919806 -2.72E-04
  Decoupling Energy:                                               0.0371369487
  Recoupling Energy:                                              -0.0063748859
     5 OT DIIS     0.15E+00    4.4     0.00004923      -255.8080296584 -3.77E-05
  Decoupling Energy:                                               0.0371276795
  Recoupling Energy:                                              -0.0063747811
     6 OT DIIS     0.15E+00    4.4     0.00001779      -255.8080336511 -3.99E-06
  Decoupling Energy:                                               0.0371313106
  Recoupling Energy:                                              -0.0063748226
     7 OT DIIS     0.15E+00    4.5     0.00000735      -255.8080341993 -5.48E-07
  Decoupling Energy:                                               0.0371301428
  Recoupling Energy:                                              -0.0063748095
     8 OT DIIS     0.15E+00    4.5     0.00000183      -255.8080343006 -1.01E-07
  Decoupling Energy:                                               0.0371306206
  Recoupling Energy:                                              -0.0063748146
     9 OT DIIS     0.15E+00    4.4     0.00000127      -255.8080343063 -5.75E-09
  Decoupling Energy:                                               0.0371304192
  Recoupling Energy:                                              -0.0063748126
    10 OT DIIS     0.15E+00    4.4     0.00000040      -255.8080343091 -2.80E-09

  *** SCF run converged in    10 steps ***


  Electronic density on regular grids:       -180.0000000001       -0.0000000001
  Core density on regular grids:              180.9999999999       -0.0000000001
  Total charge density on r-space grids:        0.9999999998
  Total charge density g-space grids:           0.9999999998

  Overlap energy of the core charge distribution:               0.00002367605301
  Self energy of the core charge distribution:               -615.71576003586028
  Core Hamiltonian energy:                                    191.83715153452570
  Hartree energy:                                             247.48551243214325
  Exchange-correlation energy:                                -79.67126389339120
  QM/MM Electrostatic energy:                                   0.25630197742905

  Total energy:                                              -255.80803430910046
  Decoupling Energy:                                               0.0371304353
  Recoupling Energy:                                              -0.0063748127

 ENERGY| Total FORCE_EVAL ( QMMM ) energy [a.u.]:          -1060.045711405135989

 MD| ***************************************************************************
 MD| Step number                                                               1
 MD| Time [fs]                                                          1.000000
 MD| Conserved quantity [hartree]                            -0.841545612455E+03
 MD| ---------------------------------------------------------------------------
 MD|                                          Instantaneous             Averages
 MD| CPU time per MD step [s]                    229.759484           229.759484
 MD| Energy drift per atom [K]           0.138208460318E+02   0.000000000000E+00
 MD| Potential energy [hartree]         -0.106004571141E+04  -0.106004571141E+04
 MD| Total kinetic energy [hartree]      0.218500098950E+03   0.218500098950E+03
 MD| QM kinetic energy [hartree]         0.120537399455E+00   0.120537399455E+00
 MD| Total temperature [K]                       273.923972           273.923972
 MD| QM temperature [K]                          373.163283           373.163283
 MD| ***************************************************************************

  Translating the system in order to center the QM fragment in the QM box.

 Number of electrons:                                                        180
 Number of occupied orbitals:                                                 90
 Number of molecular orbitals:                                                90

 Number of orbital functions:                                                620
 Number of independent orbital functions:                                    620

 Extrapolation method: ASPC


 SCF WAVEFUNCTION OPTIMIZATION

  ----------------------------------- OT ---------------------------------------
  Minimizer      : DIIS                : direct inversion
                                         in the iterative subspace
                                         using   7 DIIS vectors
                                         safer DIIS on
  Preconditioner : FULL_ALL            : diagonalization, state selective
  Precond_solver : DEFAULT
  stepsize       :    0.15000000                  energy_gap     :    0.08000000
  eps_taylor     :   0.10000E-15                  max_taylor     :             4
  ----------------------------------- OT ---------------------------------------

  Step     Update method      Time    Convergence         Total energy    Change
  ------------------------------------------------------------------------------
  Decoupling Energy:                                               0.0371782649
  Recoupling Energy:                                              -0.0063753295
     1 OT DIIS     0.15E+00    3.5     0.00034569      -255.4446723064 -2.55E+02
  Decoupling Energy:                                               0.0371762834
  Recoupling Energy:                                              -0.0063753051
     2 OT DIIS     0.15E+00    4.5     0.00014529      -255.4452859380 -6.14E-04
  Decoupling Energy:                                               0.0371731700
  Recoupling Energy:                                              -0.0063752666
     3 OT DIIS     0.15E+00    4.5     0.00012811      -255.4453579795 -7.20E-05
  Decoupling Energy:                                               0.0371770310
  Recoupling Energy:                                              -0.0063753178
     4 OT DIIS     0.15E+00    4.5     0.00005544      -255.4453891695 -3.12E-05
  Decoupling Energy:                                               0.0371727801
  Recoupling Energy:                                              -0.0063752653
     5 OT DIIS     0.15E+00    4.5     0.00001634      -255.4453942993 -5.13E-06
  Decoupling Energy:                                               0.0371753987
  Recoupling Energy:                                              -0.0063752960
     6 OT DIIS     0.15E+00    4.5     0.00000629      -255.4453947492 -4.50E-07
  Decoupling Energy:                                               0.0371743569
  Recoupling Energy:                                              -0.0063752840
     7 OT DIIS     0.15E+00    4.5     0.00000206      -255.4453948239 -7.47E-08
  Decoupling Energy:                                               0.0371747656
  Recoupling Energy:                                              -0.0063752885
     8 OT DIIS     0.15E+00    4.5     0.00000090      -255.4453948311 -7.18E-09

  *** SCF run converged in     8 steps ***


  Electronic density on regular grids:       -180.0000000008       -0.0000000008
  Core density on regular grids:              180.9999999999       -0.0000000001
  Total charge density on r-space grids:        0.9999999990
  Total charge density g-space grids:           0.9999999990

  Overlap energy of the core charge distribution:               0.00004639440285
  Self energy of the core charge distribution:               -615.71576003586028
  Core Hamiltonian energy:                                    191.92051756570444
  Hartree energy:                                             247.45180559415363
  Exchange-correlation energy:                                -79.68728052978473
  QM/MM Electrostatic energy:                                   0.58527618031365

  Total energy:                                              -255.44539483107042
  Decoupling Energy:                                               0.0371745951
  Recoupling Energy:                                              -0.0063752867

 ENERGY| Total FORCE_EVAL ( QMMM ) energy [a.u.]:          -1061.319246073459226

 MD| ***************************************************************************
 MD| Step number                                                               2
 MD| Time [fs]                                                          2.000000
 MD| Conserved quantity [hartree]                            -0.842902035493E+03
 MD| ---------------------------------------------------------------------------
 MD|                                          Instantaneous             Averages
 MD| CPU time per MD step [s]                    115.738231           172.748858
 MD| Energy drift per atom [K]           0.112701292916E+02   0.563506464582E+01
 MD| Potential energy [hartree]         -0.106131924607E+04  -0.106068247874E+04
 MD| Total kinetic energy [hartree]      0.218417210581E+03   0.218458654765E+03
 MD| QM kinetic energy [hartree]         0.111218646800E+00   0.115878023127E+00
 MD| Total temperature [K]                       273.820058           273.872015
 MD| QM temperature [K]                          344.314010           358.738647
 MD| ***************************************************************************

  Translating the system in order to center the QM fragment in the QM box.

 Number of electrons:                                                        180
 Number of occupied orbitals:                                                 90
 Number of molecular orbitals:                                                90

 Number of orbital functions:                                                620
 Number of independent orbital functions:                                    620

 Extrapolation method: ASPC


 SCF WAVEFUNCTION OPTIMIZATION

  ----------------------------------- OT ---------------------------------------
  Minimizer      : DIIS                : direct inversion
                                         in the iterative subspace
                                         using   7 DIIS vectors
                                         safer DIIS on
  Preconditioner : FULL_ALL            : diagonalization, state selective
  Precond_solver : DEFAULT
  stepsize       :    0.15000000                  energy_gap     :    0.08000000
  eps_taylor     :   0.10000E-15                  max_taylor     :             4
  ----------------------------------- OT ---------------------------------------

  Step     Update method      Time    Convergence         Total energy    Change
  ------------------------------------------------------------------------------
  Decoupling Energy:                                               0.0372093686
  Recoupling Energy:                                              -0.0063756581
     1 OT DIIS     0.15E+00    3.5     0.00068288      -254.9647888735 -2.55E+02
  Decoupling Energy:                                               0.0372203239
  Recoupling Energy:                                              -0.0063757651
     2 OT DIIS     0.15E+00    4.4     0.00025903      -254.9670248347 -2.24E-03
  Decoupling Energy:                                               0.0372193634
  Recoupling Energy:                                              -0.0063757535
     3 OT DIIS     0.15E+00    4.5     0.00015274      -254.9672853833 -2.61E-04
  Decoupling Energy:                                               0.0372147276
  Recoupling Energy:                                              -0.0063757082
     4 OT DIIS     0.15E+00    4.4     0.00007836      -254.9673487019 -6.33E-05
  Decoupling Energy:                                               0.0372155263
  Recoupling Energy:                                              -0.0063757148
     5 OT DIIS     0.15E+00    4.4     0.00002591      -254.9673601207 -1.14E-05
  Decoupling Energy:                                               0.0372158098
  Recoupling Energy:                                              -0.0063757173
     6 OT DIIS     0.15E+00    4.4     0.00001297      -254.9673612313 -1.11E-06
  Decoupling Energy:                                               0.0372161516
  Recoupling Energy:                                              -0.0063757209
     7 OT DIIS     0.15E+00    4.5     0.00000392      -254.9673615304 -2.99E-07
  Decoupling Energy:                                               0.0372156716
  Recoupling Energy:                                              -0.0063757160
     8 OT DIIS     0.15E+00    4.4     0.00000141      -254.9673615568 -2.64E-08
  Decoupling Energy:                                               0.0372158579
  Recoupling Energy:                                              -0.0063757180
     9 OT DIIS     0.15E+00    4.4     0.00000048      -254.9673615610 -4.19E-09

  *** SCF run converged in     9 steps ***


  Electronic density on regular grids:       -180.0000000026       -0.0000000026
  Core density on regular grids:              180.9999999999       -0.0000000001
  Total charge density on r-space grids:        0.9999999973
  Total charge density g-space grids:           0.9999999973

  Overlap energy of the core charge distribution:               0.00004419926802
  Self energy of the core charge distribution:               -615.71576003586028
  Core Hamiltonian energy:                                    191.78835509525902
  Hartree energy:                                             247.54137729876908
  Exchange-correlation energy:                                -79.64149443203095
  QM/MM Electrostatic energy:                                   1.06011631359549

  Total energy:                                              -254.96736156099959
  Decoupling Energy:                                               0.0372157866
  Recoupling Energy:                                              -0.0063757172

 ENERGY| Total FORCE_EVAL ( QMMM ) energy [a.u.]:          -1082.129011333814788

 MD| ***************************************************************************
 MD| Step number                                                               3
 MD| Time [fs]                                                          3.000000
 MD| Conserved quantity [hartree]                            -0.846476809067E+03
 MD| ---------------------------------------------------------------------------
 MD|                                          Instantaneous             Averages
 MD| CPU time per MD step [s]                    120.939528           155.479081
 MD| Energy drift per atom [K]           0.454786452339E+01   0.527266460501E+01
 MD| Potential energy [hartree]         -0.108212901133E+04  -0.106783132294E+04
 MD| Total kinetic energy [hartree]      0.235652202267E+03   0.224189837266E+03
 MD| QM kinetic energy [hartree]         0.116444682000E+00   0.116066909418E+00
 MD| Total temperature [K]                       295.426810           281.056947
 MD| QM temperature [K]                          360.492926           359.323406
 MD| ***************************************************************************

  Translating the system in order to center the QM fragment in the QM box.

 Number of electrons:                                                        180
 Number of occupied orbitals:                                                 90
 Number of molecular orbitals:                                                90

 Number of orbital functions:                                                620
 Number of independent orbital functions:                                    620

 Extrapolation method: ASPC


 SCF WAVEFUNCTION OPTIMIZATION

  ----------------------------------- OT ---------------------------------------
  Minimizer      : DIIS                : direct inversion
                                         in the iterative subspace
                                         using   7 DIIS vectors
                                         safer DIIS on
  Preconditioner : FULL_ALL            : diagonalization, state selective
  Precond_solver : DEFAULT
  stepsize       :    0.15000000                  energy_gap     :    0.08000000
  eps_taylor     :   0.10000E-15                  max_taylor     :             4
  ----------------------------------- OT ---------------------------------------

  Step     Update method      Time    Convergence         Total energy    Change
  ------------------------------------------------------------------------------
  Decoupling Energy:                                               0.0372540981
  Recoupling Energy:                                              -0.0063761081
     1 OT DIIS     0.15E+00    3.5     0.00024459      -254.4113405057 -2.54E+02
  Decoupling Energy:                                               0.0372507590
  Recoupling Energy:                                              -0.0063760834
     2 OT DIIS     0.15E+00    4.5     0.00009754      -254.4116522324 -3.12E-04
  Decoupling Energy:                                               0.0372523112
  Recoupling Energy:                                              -0.0063760938
     3 OT DIIS     0.15E+00    4.4     0.00006294      -254.4116943783 -4.21E-05
  Decoupling Energy:                                               0.0372487210
  Recoupling Energy:                                              -0.0063760616
     4 OT DIIS     0.15E+00    4.4     0.00002077      -254.4117050289 -1.07E-05
  Decoupling Energy:                                               0.0372498214
  Recoupling Energy:                                              -0.0063760714
     5 OT DIIS     0.15E+00    4.4     0.00000699      -254.4117059472 -9.18E-07
  Decoupling Energy:                                               0.0372497343
  Recoupling Energy:                                              -0.0063760707
     6 OT DIIS     0.15E+00    4.5     0.00000424      -254.4117060209 -7.37E-08
  Decoupling Energy:                                               0.0372496961
  Recoupling Energy:                                              -0.0063760701
     7 OT DIIS     0.15E+00    4.5     0.00000103      -254.4117060509 -3.00E-08
  Decoupling Energy:                                               0.0372497534
  Recoupling Energy:                                              -0.0063760708
     8 OT DIIS     0.15E+00    4.5     0.00000046      -254.4117060527 -1.87E-09

  *** SCF run converged in     8 steps ***


  Electronic density on regular grids:       -179.9999999994        0.0000000006
  Core density on regular grids:              180.9999999999       -0.0000000001
  Total charge density on r-space grids:        1.0000000005
  Total charge density g-space grids:           1.0000000005

  Overlap energy of the core charge distribution:               0.00001948738710
  Self energy of the core charge distribution:               -615.71576003586028
  Core Hamiltonian energy:                                    191.48986428632853
  Hartree energy:                                             247.72017573600337
  Exchange-correlation energy:                                -79.55045540589458
  QM/MM Electrostatic energy:                                   1.64444987930499

  Total energy:                                              -254.41170605273086
  Decoupling Energy:                                               0.0372497052
  Recoupling Energy:                                              -0.0063760703
