 DBCSR| CPU Multiplication driver                                           BLAS
 DBCSR| Multrec recursion limit                                              512
 DBCSR| Multiplication stack size                                           1000
 DBCSR| Maximum elements for images                                    UNLIMITED
 DBCSR| Multiplicative factor virtual images                                   1
 DBCSR| Use multiplication densification                                       T
 DBCSR| Multiplication size stacks                                             3
 DBCSR| Use memory pool for CPU allocation                                     F
 DBCSR| Number of 3D layers                                               SINGLE
 DBCSR| Use MPI memory allocation                                              F
 DBCSR| Use RMA algorithm                                                      F
 DBCSR| Use Communication thread                                               T
 DBCSR| Communication thread load                                             87
 DBCSR| MPI: My node id                                                        0
 DBCSR| MPI: Number of nodes                                                  64
 DBCSR| OMP: Current number of threads                                         1
 DBCSR| OMP: Max number of threads                                             1
 DBCSR| Split modifier for TAS multiplication algorithm                  1.0E+00


  **** **** ******  **  PROGRAM STARTED AT               2021-08-31 17:53:25.536
 ***** ** ***  *** **   PROGRAM STARTED ON                             nid001142
 **    ****   ******    PROGRAM STARTED BY                                 hjbio
 ***** **    ** ** **   PROGRAM PROCESS ID                                 21352
  **** **  *******  **  PROGRAM STARTED IN /lus/cls01095/work/d118/d118/hjbio/qm
                                           mm-benchmarking/archer2/CPU/cp2kMD/CB
                                           D_PHY-PBE0/6STEPS/1NODES/64CPN/1THREA
                                           DS

 CP2K| version string:                                          CP2K version 8.2
 CP2K| source code revision number:                                  git:310b7ab
 CP2K| cp2kflags: omp libint fftw3 libxc elpa parallel mpi3 scalapack plumed2   
 CP2K| is freely available from                            https://www.cp2k.org/
 CP2K| Program compiled at                          Thu 10 Jun 17:43:51 BST 2021
 CP2K| Program compiled on                                                 uan01
 CP2K| Program compiled for                                              ARCHER2
 CP2K| Data directory path              /work/d118/d118/hjbio/CP2K/cp2k-8.2/data
 CP2K| Input file name                                          CBD_PHY-cp2k.inp

 GLOBAL| Force Environment number                                              1
 GLOBAL| Basis set file name                                           HFX_BASIS
 GLOBAL| Potential file name                                           POTENTIAL
 GLOBAL| MM Potential file name                                     MM_POTENTIAL
 GLOBAL| Coordinate file name                                        CBD_PHY.pdb
 GLOBAL| Method name                                                        CP2K
 GLOBAL| Project name                                               CBD_PHY-PBE0
 GLOBAL| Run type                                                             MD
 GLOBAL| FFT library                                                       FFTW3
 GLOBAL| Diagonalization library                                            ELPA
 GLOBAL| Minimum number of eigenvectors for ELPA usage                        16
 GLOBAL| Orthonormality check for eigenvectors                          DISABLED
 GLOBAL| Matrix multiplication library                                    SCALAP
 GLOBAL| All-to-all communication in single precision                          F
 GLOBAL| FFTs using library dependent lengths                                  F
 GLOBAL| Grid backend                                                       AUTO
 GLOBAL| Global print level                                                  LOW
 GLOBAL| MPI I/O enabled                                                       T
 GLOBAL| Total number of message passing processes                            64
 GLOBAL| Number of threads for this process                                    1
 GLOBAL| This output is from process                                           0
 GLOBAL| CPU model name                          AMD EPYC 7742 64-Core Processor
 GLOBAL| CPUID                                                              1002

 MEMORY| system memory details [Kb]
 MEMORY|                        rank 0           min           max       average
 MEMORY| MemTotal            263568576     263568576     263568576     263568576
 MEMORY| MemFree             241486624     241486364     241486624     241486603
 MEMORY| Buffers                251352        251352        251352        251352
 MEMORY| Cached                1302736       1302736       1302736       1302736
 MEMORY| Slab                  2450144       2450144       2450152       2450144
 MEMORY| SReclaimable           198300        198300        198300        198300
 MEMORY| MemLikelyFree       243239012     243238752     243239012     243238991



                      ************* ******** ***********   
                     ************* **********************  
                     ****     **** ****      ***********   
                     ******** ****  *******     ****       
                     *******  ****   *******   ****        
                     ****     ****       ****  ****        
                     ****     **** **********  ****        
                      ****     **** ********    ****       
                     FRONTIERS IN SIMULATION TECHNOLOGY    
                                                           
                        C.J. Mundy, S. Balasubramanian,    
                     Ken Bagchi, J. Hutter, Ari Seitsonen  
                      IFW Kuo, T. Laino, J. VandeVondele   
                                 Version 1.0               

                                                           


 EWALD| Summation is done by:                                               SPME
 EWALD| Alpha parameter [       ANGSTROM^-1]                              0.4000
 EWALD| Real Space Cutoff [          ANGSTROM]                            8.4348
 EWALD| G-space max. Miller index                         80        80        80
 EWALD| Spline interpolation order                                             6

 FORCEFIELD| WARNING: A non Critical ForceField parameter is missing! CP2K GOES!
 FORCEFIELD| Non critical parameters are:Urey-Bradley,Torsions,Impropers, Opbends and 1-4
 FORCEFIELD| All missing parameters will not contribute to the potential energy!
 FORCEFIELD| Activate the print key FF_INFO to have a list of missing parameters

 CHARGE_INFO| Total Charge of the Classical System:                    -0.825808

 SPLINE_INFO| Generating 101926 splines for NONBONDED14 interactions 
              Due to 451 different atomic kinds
  ...10192  ...20384  ...30576  ...40768  ...50960  ...61152  ...71344  ...81536  ...91728  ...101920
 SPLINE_INFO| Number of unique splines computed:            301
 SPLINE_INFO| Done

 SPLINE_INFO| Generating 101926 splines for NONBONDED interactions 
              Due to 451 different atomic kinds
  ...10192  ...20384  ...30576  ...40768  ...50960  ...61152  ...71344  ...81536  ...91728  ...101920
 SPLINE_INFO| Number of unique splines computed:            301
 SPLINE_INFO| Done

 *******************************************************************************
 *******************************************************************************
 **                                                                           **
 **     #####                         ##              ##                      **
 **    ##   ##            ##          ##              ##                      **
 **   ##     ##                       ##            ######                    **
 **   ##     ##  ##   ##  ##   #####  ##  ##   ####   ##    #####    #####    **
 **   ##     ##  ##   ##  ##  ##      ## ##   ##      ##   ##   ##  ##   ##   **
 **   ##  ## ##  ##   ##  ##  ##      ####     ###    ##   ######   ######    **
 **    ##  ###   ##   ##  ##  ##      ## ##      ##   ##   ##       ##        **
 **     #######   #####   ##   #####  ##  ##  ####    ##    #####   ##        **
 **           ##                                                    ##        **
 **                                                                           **
 **                                                ... make the atoms dance   **
 **                                                                           **
 **            Copyright (C) by CP2K developers group (2000-2021)             **
 **                      J. Chem. Phys. 152, 194103 (2020)                    **
 **                                                                           **
 *******************************************************************************


 TOTAL NUMBERS AND MAXIMUM NUMBERS

  Total number of            - Atomic kinds:                                   5
                             - Atoms:                                         68
                             - Shell sets:                                   340
                             - Shells:                                       445
                             - Primitive Cartesian functions:                476
                             - Cartesian basis functions:                   1137
                             - Spherical basis functions:                   1067

  Maximum angular momentum of- Orbital basis functions:                        2
                             - Local part of the GTH pseudopotential:          2
                             - Non-local part of the GTH pseudopotential:      0


 SCF PARAMETERS         Density guess:                                   RESTART
                        --------------------------------------------------------
                        max_scf:                                              30
                        max_scf_history:                                       0
                        max_diis:                                              4
                        --------------------------------------------------------
                        eps_scf:                                        1.00E-06
                        eps_scf_history:                                0.00E+00
                        eps_diis:                                       1.00E-01
                        eps_eigval:                                     1.00E-05
                        --------------------------------------------------------
                        level_shift [a.u.]:                                 0.00
                        --------------------------------------------------------
                        Outer loop SCF in use 
                        No variables optimised in outer loop
                        eps_scf                                         1.00E-06
                        max_scf                                               20
                        No outer loop optimization
                        step_size                                       5.00E-01

 *******************************************************************************
 *******************************************************************************
 **                                                                           **
 **             #######  ##     ## ##     ## ##     ##                        **
 **            ##     ## ###   ### ###   ### ###   ###                        **
 **            ##     ## #### #### #### #### #### ####                        **
 **            ##     ## ## ### ## ## ### ## ## ### ##                        **
 **            ##  ## ## ##     ## ##     ## ##     ##                        **
 **            ##    ##  ##     ## ##     ## ##     ##  T.Laino and F.Mohamed **
 **             ##### ## ##     ## ##     ## ##     ##  2005 - 2015           **
 **                                                                           **
 **                                                     Calculation Started.. **
 *******************************************************************************
 *******************************************************************************

 MD_PAR| Molecular dynamics protocol (MD input parameters)
 MD_PAR| Ensemble type                                                       NVE
 MD_PAR| Number of time steps                                                  6
 MD_PAR| Time step [fs]                                                 1.000000
 MD_PAR| Temperature [K]                                              300.000000
 MD_PAR| Temperature tolerance [K]                                      0.000000
 MD_PAR| Print MD information every                                    1 step(s)
 MD_PAR| File type   Print frequency [steps]                          File names
 MD_PAR| Coordinates          1                           CBD_PHY-PBE0-pos-1.xyz
 MD_PAR| Velocities           1                           CBD_PHY-PBE0-vel-1.xyz
 MD_PAR| Energies             1                              CBD_PHY-PBE0-1.ener
 MD_PAR| Dump                20                           CBD_PHY-PBE0-1.restart

 ROT| Rotational analysis information
 ROT| Principal axes and moments of inertia [a.u.]
 ROT|                           1                   2                   3
 ROT| Eigenvalues      1.56283164001E+13   1.56407408488E+13   1.56663418804E+13
 ROT|      x              0.901637047331     -0.018153263569      0.432112362589
 ROT|      y              0.323714777231      0.690893927917     -0.646431994388
 ROT|      z             -0.286808957117      0.722728191915      0.628812040859
 ROT| Number of rotovibrational vectors                                        6

 DOF| Calculation of degrees of freedom
 DOF| Number of atoms                                                     167923
 DOF| Number of intramolecular constraints                                     0
 DOF| Number of intermolecular constraints                                     0
 DOF| Invariants (translations + rotations)                                    3
 DOF| Degrees of freedom                                                  503766

 DOF| Restraints information
 DOF| Number of intramolecular restraints                                      0
 DOF| Number of intermolecular restraints                                      0

 MD_VEL| Velocities initialization
 MD_VEL| Initial temperature [K]                                      300.000000
 MD_VEL| COM velocity            -0.0000000000     0.0000000000     0.0000000000

  Translating the system in order to center the QM fragment in the QM box.

 Number of electrons:                                                        180
 Number of occupied orbitals:                                                 90
 Number of molecular orbitals:                                                90

 Number of orbital functions:                                               1067
 Number of independent orbital functions:                                   1067

 Extrapolation method: initial_guess


 SCF WAVEFUNCTION OPTIMIZATION

  ----------------------------------- OT ---------------------------------------
  Minimizer      : DIIS                : direct inversion
                                         in the iterative subspace
                                         using   7 DIIS vectors
                                         safer DIIS on
  Preconditioner : FULL_ALL            : diagonalization, state selective
  Precond_solver : DEFAULT
  stepsize       :    0.15000000                  energy_gap     :    0.08000000
  eps_taylor     :   0.10000E-15                  max_taylor     :             4
  ----------------------------------- OT ---------------------------------------

  Step     Update method      Time    Convergence         Total energy    Change
  ------------------------------------------------------------------------------
  Decoupling Energy:                                               0.0370647021
  Recoupling Energy:                                              -0.0063741479
     1 OT DIIS     0.15E+00   19.9     0.00129057      -255.9257316521 -2.56E+02
  Decoupling Energy:                                               0.0370576004
  Recoupling Energy:                                              -0.0063740314
     2 OT DIIS     0.15E+00    3.9     0.00057761      -255.9419521977 -1.62E-02
  Decoupling Energy:                                               0.0369596417
  Recoupling Energy:                                              -0.0063730135
     3 OT DIIS     0.15E+00    3.9     0.00038348      -255.9451217318 -3.17E-03
  Decoupling Energy:                                               0.0369795470
  Recoupling Energy:                                              -0.0063732416
     4 OT DIIS     0.15E+00    3.9     0.00009866      -255.9458275768 -7.06E-04
  Decoupling Energy:                                               0.0369716948
  Recoupling Energy:                                              -0.0063731487
     5 OT DIIS     0.15E+00    3.9     0.00003992      -255.9458779686 -5.04E-05
  Decoupling Energy:                                               0.0369737640
  Recoupling Energy:                                              -0.0063731649
     6 OT DIIS     0.15E+00    3.9     0.00001793      -255.9458894170 -1.14E-05
  Decoupling Energy:                                               0.0369741808
  Recoupling Energy:                                              -0.0063731680
     7 OT DIIS     0.15E+00    3.9     0.00000621      -255.9458922938 -2.88E-06
  Decoupling Energy:                                               0.0369727127
  Recoupling Energy:                                              -0.0063731518
     8 OT DIIS     0.15E+00    3.9     0.00000242      -255.9458926328 -3.39E-07
  Decoupling Energy:                                               0.0369731061
  Recoupling Energy:                                              -0.0063731556
     9 OT DIIS     0.15E+00    3.9     0.00000111      -255.9458926822 -4.94E-08
  Decoupling Energy:                                               0.0369728228
  Recoupling Energy:                                              -0.0063731526
    10 OT DIIS     0.15E+00    3.9     0.00000048      -255.9458926924 -1.02E-08

  *** SCF run converged in    10 steps ***


  Electronic density on regular grids:       -179.9999999999        0.0000000001
  Core density on regular grids:              180.9999999999       -0.0000000001
  Total charge density on r-space grids:        1.0000000000
  Total charge density g-space grids:           1.0000000000

  Overlap energy of the core charge distribution:               0.00001951532734
  Self energy of the core charge distribution:               -615.71576003586028
  Core Hamiltonian energy:                                    191.01363220817697
  Hartree energy:                                             248.20663869015971
  Exchange-correlation energy:                                -61.38430761263334
  Hartree-Fock Exchange energy:                               -18.10821018492814
  QM/MM Electrostatic energy:                                   0.04209472735318

  Total energy:                                              -255.94589269240450

  outer SCF iter =    1 RMS gradient =   0.48E-06 energy =       -255.9458926924
  outer SCF loop converged in   1 iterations or   10 steps

  Decoupling Energy:                                               0.0369728028
  Recoupling Energy:                                              -0.0063731523

 ENERGY| Total FORCE_EVAL ( QMMM ) energy [a.u.]:          -1088.110859624505338

 MD_INI| MD initialization
 MD_INI| Potential energy [hartree]                          -0.108811085962E+04
 MD_INI| Total kinetic energy [hartree]                       0.239300084734E+03
 MD_INI| QM kinetic energy [hartree]                          0.106639360339E+00
 MD_INI| Total temperature [K]                                        300.000000
 MD_INI| QM temperature [K]                                           330.137318
 MD_INI| Cell volume [bohr^3]                                 1.137316355424E+07
 MD_INI| Cell volume [ang^3]                                  1.685328937712E+06
 MD_INI| Cell lengths [bohr]      2.24884969E+02  2.24884969E+02  2.24884969E+02
 MD_INI| Cell lengths [ang]       1.19004000E+02  1.19004000E+02  1.19004000E+02
 MD_INI| Cell angles [deg]        9.00000000E+01  9.00000000E+01  9.00000000E+01

  Translating the system in order to center the QM fragment in the QM box.

 Number of electrons:                                                        180
 Number of occupied orbitals:                                                 90
 Number of molecular orbitals:                                                90

 Number of orbital functions:                                               1067
 Number of independent orbital functions:                                   1067

 Extrapolation method: ASPC


 SCF WAVEFUNCTION OPTIMIZATION

  ----------------------------------- OT ---------------------------------------
  Minimizer      : DIIS                : direct inversion
                                         in the iterative subspace
                                         using   7 DIIS vectors
                                         safer DIIS on
  Preconditioner : FULL_ALL            : diagonalization, state selective
  Precond_solver : DEFAULT
  stepsize       :    0.15000000                  energy_gap     :    0.08000000
  eps_taylor     :   0.10000E-15                  max_taylor     :             4
  ----------------------------------- OT ---------------------------------------

  Step     Update method      Time    Convergence         Total energy    Change
  ------------------------------------------------------------------------------
  Decoupling Energy:                                               0.0370014667
  Recoupling Energy:                                              -0.0063734172
     1 OT DIIS     0.15E+00   16.4     0.00075899      -255.7182133791 -2.56E+02
  Decoupling Energy:                                               0.0370082386
  Recoupling Energy:                                              -0.0063735355
     2 OT DIIS     0.15E+00    3.9     0.00032685      -255.7237312587 -5.52E-03
  Decoupling Energy:                                               0.0370087411
  Recoupling Energy:                                              -0.0063735590
     3 OT DIIS     0.15E+00    3.9     0.00019068      -255.7247685896 -1.04E-03
  Decoupling Energy:                                               0.0370199883
  Recoupling Energy:                                              -0.0063736817
     4 OT DIIS     0.15E+00    3.9     0.00006054      -255.7249610267 -1.92E-04
  Decoupling Energy:                                               0.0370216763
  Recoupling Energy:                                              -0.0063737045
     5 OT DIIS     0.15E+00    3.9     0.00001954      -255.7249775915 -1.66E-05
  Decoupling Energy:                                               0.0370210005
  Recoupling Energy:                                              -0.0063736984
     6 OT DIIS     0.15E+00    3.9     0.00000817      -255.7249798498 -2.26E-06
  Decoupling Energy:                                               0.0370221930
  Recoupling Energy:                                              -0.0063737124
     7 OT DIIS     0.15E+00    3.9     0.00000308      -255.7249803119 -4.62E-07
  Decoupling Energy:                                               0.0370222383
  Recoupling Energy:                                              -0.0063737132
     8 OT DIIS     0.15E+00    3.9     0.00000136      -255.7249803891 -7.72E-08
  Decoupling Energy:                                               0.0370224659
  Recoupling Energy:                                              -0.0063737159
     9 OT DIIS     0.15E+00    3.9     0.00000058      -255.7249804048 -1.57E-08

  *** SCF run converged in     9 steps ***


  Electronic density on regular grids:       -180.0000000000        0.0000000000
  Core density on regular grids:              180.9999999999       -0.0000000001
  Total charge density on r-space grids:        0.9999999999
  Total charge density g-space grids:           0.9999999999

  Overlap energy of the core charge distribution:               0.00002422739645
  Self energy of the core charge distribution:               -615.71576003586028
  Core Hamiltonian energy:                                    191.21094984083817
  Hartree energy:                                             248.07774823500438
  Exchange-correlation energy:                                -61.42683492324527
  Hartree-Fock Exchange energy:                               -18.12283148743714
  QM/MM Electrostatic energy:                                   0.25172373847510

  Total energy:                                              -255.72498040482859

  outer SCF iter =    1 RMS gradient =   0.58E-06 energy =       -255.7249804048
  outer SCF loop converged in   1 iterations or    9 steps

  Decoupling Energy:                                               0.0370224945
  Recoupling Energy:                                              -0.0063737164

 ENERGY| Total FORCE_EVAL ( QMMM ) energy [a.u.]:          -1059.962356574455271

 MD| ***************************************************************************
 MD| Step number                                                               1
 MD| Time [fs]                                                          1.000000
 MD| Conserved quantity [hartree]                            -0.841461427170E+03
 MD| ---------------------------------------------------------------------------
 MD|                                          Instantaneous             Averages
 MD| CPU time per MD step [s]                    303.014946           303.014946
 MD| Energy drift per atom [K]           0.138202490944E+02   0.000000000000E+00
 MD| Potential energy [hartree]         -0.105996235657E+04  -0.105996235657E+04
 MD| Total kinetic energy [hartree]      0.218500929404E+03   0.218500929404E+03
 MD| QM kinetic energy [hartree]         0.121347279209E+00   0.121347279209E+00
 MD| Total temperature [K]                       273.925013           273.925013
 MD| QM temperature [K]                          375.670533           375.670533
 MD| ***************************************************************************

  Translating the system in order to center the QM fragment in the QM box.

 Number of electrons:                                                        180
 Number of occupied orbitals:                                                 90
 Number of molecular orbitals:                                                90

 Number of orbital functions:                                               1067
 Number of independent orbital functions:                                   1067

 Extrapolation method: ASPC


 SCF WAVEFUNCTION OPTIMIZATION

  ----------------------------------- OT ---------------------------------------
  Minimizer      : DIIS                : direct inversion
                                         in the iterative subspace
                                         using   7 DIIS vectors
                                         safer DIIS on
  Preconditioner : FULL_ALL            : diagonalization, state selective
  Precond_solver : DEFAULT
  stepsize       :    0.15000000                  energy_gap     :    0.08000000
  eps_taylor     :   0.10000E-15                  max_taylor     :             4
  ----------------------------------- OT ---------------------------------------

  Step     Update method      Time    Convergence         Total energy    Change
  ------------------------------------------------------------------------------
  Decoupling Energy:                                               0.0370781910
  Recoupling Energy:                                              -0.0063743357
     1 OT DIIS     0.15E+00   16.4     0.00029256      -255.3622521127 -2.55E+02
  Decoupling Energy:                                               0.0370714480
  Recoupling Energy:                                              -0.0063742686
     2 OT DIIS     0.15E+00    3.9     0.00012380      -255.3630879187 -8.36E-04
  Decoupling Energy:                                               0.0370747197
  Recoupling Energy:                                              -0.0063743003
     3 OT DIIS     0.15E+00    3.9     0.00005679      -255.3632552464 -1.67E-04
  Decoupling Energy:                                               0.0370720776
  Recoupling Energy:                                              -0.0063742776
     4 OT DIIS     0.15E+00    3.9     0.00001757      -255.3632740388 -1.88E-05
  Decoupling Energy:                                               0.0370725483
  Recoupling Energy:                                              -0.0063742816
     5 OT DIIS     0.15E+00    3.9     0.00000682      -255.3632755658 -1.53E-06
  Decoupling Energy:                                               0.0370729654
  Recoupling Energy:                                              -0.0063742866
     6 OT DIIS     0.15E+00    3.9     0.00000313      -255.3632758235 -2.58E-07
  Decoupling Energy:                                               0.0370729502
  Recoupling Energy:                                              -0.0063742866
     7 OT DIIS     0.15E+00    3.9     0.00000105      -255.3632758845 -6.10E-08
  Decoupling Energy:                                               0.0370730081
  Recoupling Energy:                                              -0.0063742873
     8 OT DIIS     0.15E+00    3.9     0.00000048      -255.3632758947 -1.02E-08

  *** SCF run converged in     8 steps ***


  Electronic density on regular grids:       -180.0000000000       -0.0000000000
  Core density on regular grids:              180.9999999999       -0.0000000001
  Total charge density on r-space grids:        0.9999999998
  Total charge density g-space grids:           0.9999999998

  Overlap energy of the core charge distribution:               0.00005088940857
  Self energy of the core charge distribution:               -615.71576003586028
  Core Hamiltonian energy:                                    191.44418523261248
  Hartree energy:                                             247.94136797766436
  Exchange-correlation energy:                                -61.47332476886555
  Hartree-Fock Exchange energy:                               -18.13880651869727
  QM/MM Electrostatic energy:                                   0.57901132906290

  Total energy:                                              -255.36327589467476

  outer SCF iter =    1 RMS gradient =   0.48E-06 energy =       -255.3632758947
  outer SCF loop converged in   1 iterations or    8 steps

  Decoupling Energy:                                               0.0370730248
  Recoupling Energy:                                              -0.0063742875

 ENERGY| Total FORCE_EVAL ( QMMM ) energy [a.u.]:          -1061.235329276429638

 MD| ***************************************************************************
 MD| Step number                                                               2
 MD| Time [fs]                                                          2.000000
 MD| Conserved quantity [hartree]                            -0.842817774668E+03
 MD| ---------------------------------------------------------------------------
 MD|                                          Instantaneous             Averages
 MD| CPU time per MD step [s]                    143.302526           223.158736
 MD| Energy drift per atom [K]           0.112696744058E+02   0.563483720288E+01
 MD| Potential energy [hartree]         -0.106123532928E+04  -0.106059884293E+04
 MD| Total kinetic energy [hartree]      0.218417554609E+03   0.218459242006E+03
 MD| QM kinetic energy [hartree]         0.111578085376E+00   0.116462682293E+00
 MD| Total temperature [K]                       273.820490           273.872751
 MD| QM temperature [K]                          345.426771           360.548652
 MD| ***************************************************************************

  Translating the system in order to center the QM fragment in the QM box.

 Number of electrons:                                                        180
 Number of occupied orbitals:                                                 90
 Number of molecular orbitals:                                                90

 Number of orbital functions:                                               1067
 Number of independent orbital functions:                                   1067

 Extrapolation method: ASPC


 SCF WAVEFUNCTION OPTIMIZATION

  ----------------------------------- OT ---------------------------------------
  Minimizer      : DIIS                : direct inversion
                                         in the iterative subspace
                                         using   7 DIIS vectors
                                         safer DIIS on
  Preconditioner : FULL_ALL            : diagonalization, state selective
  Precond_solver : DEFAULT
  stepsize       :    0.15000000                  energy_gap     :    0.08000000
  eps_taylor     :   0.10000E-15                  max_taylor     :             4
  ----------------------------------- OT ---------------------------------------

  Step     Update method      Time    Convergence         Total energy    Change
  ------------------------------------------------------------------------------
  Decoupling Energy:                                               0.0371231617
  Recoupling Energy:                                              -0.0063748342
     1 OT DIIS     0.15E+00   16.4     0.00057313      -254.8840266226 -2.55E+02
  Decoupling Energy:                                               0.0371263779
  Recoupling Energy:                                              -0.0063748787
     2 OT DIIS     0.15E+00    3.8     0.00022567      -254.8871525554 -3.13E-03
  Decoupling Energy:                                               0.0371271062
  Recoupling Energy:                                              -0.0063748848
     3 OT DIIS     0.15E+00    3.9     0.00008231      -254.8877079080 -5.55E-04
  Decoupling Energy:                                               0.0371223238
  Recoupling Energy:                                              -0.0063748372
     4 OT DIIS     0.15E+00    3.9     0.00002753      -254.8877581524 -5.02E-05
  Decoupling Energy:                                               0.0371233287
  Recoupling Energy:                                              -0.0063748480
     5 OT DIIS     0.15E+00    3.9     0.00001035      -254.8877619596 -3.81E-06
  Decoupling Energy:                                               0.0371231625
  Recoupling Energy:                                              -0.0063748451
     6 OT DIIS     0.15E+00    3.9     0.00000439      -254.8877625446 -5.85E-07
  Decoupling Energy:                                               0.0371230866
  Recoupling Energy:                                              -0.0063748447
     7 OT DIIS     0.15E+00    3.9     0.00000136      -254.8877626346 -9.00E-08
  Decoupling Energy:                                               0.0371230890
  Recoupling Energy:                                              -0.0063748447
     8 OT DIIS     0.15E+00    3.9     0.00000059      -254.8877626454 -1.08E-08

  *** SCF run converged in     8 steps ***


  Electronic density on regular grids:       -180.0000000003       -0.0000000003
  Core density on regular grids:              180.9999999999       -0.0000000001
  Total charge density on r-space grids:        0.9999999996
  Total charge density g-space grids:           0.9999999996

  Overlap energy of the core charge distribution:               0.00005124509715
  Self energy of the core charge distribution:               -615.71576003586028
  Core Hamiltonian energy:                                    191.49125457370147
  Hartree energy:                                             247.90728359744583
  Exchange-correlation energy:                                -61.48094588448368
  Hartree-Fock Exchange energy:                               -18.14140183379124
  QM/MM Electrostatic energy:                                   1.05175569244617

  Total energy:                                              -254.88776264544467

  outer SCF iter =    1 RMS gradient =   0.59E-06 energy =       -254.8877626454
  outer SCF loop converged in   1 iterations or    8 steps

  Decoupling Energy:                                               0.0371230884
  Recoupling Energy:                                              -0.0063748447

 ENERGY| Total FORCE_EVAL ( QMMM ) energy [a.u.]:          -1082.045341002851501

 MD| ***************************************************************************
 MD| Step number                                                               3
 MD| Time [fs]                                                          3.000000
 MD| Conserved quantity [hartree]                            -0.846392350818E+03
 MD| ---------------------------------------------------------------------------
 MD|                                          Instantaneous             Averages
 MD| CPU time per MD step [s]                    144.238025           196.851832
 MD| Energy drift per atom [K]           0.454778088785E+01   0.527248509787E+01
 MD| Potential energy [hartree]         -0.108204534100E+04  -0.106774767562E+04
 MD| Total kinetic energy [hartree]      0.235652990185E+03   0.224190491399E+03
 MD| QM kinetic energy [hartree]         0.117355983327E+00   0.116760449304E+00
 MD| Total temperature [K]                       295.427798           281.057767
 MD| QM temperature [K]                          363.314160           361.470488
 MD| ***************************************************************************

  Translating the system in order to center the QM fragment in the QM box.

 Number of electrons:                                                        180
 Number of occupied orbitals:                                                 90
 Number of molecular orbitals:                                                90

 Number of orbital functions:                                               1067
 Number of independent orbital functions:                                   1067

 Extrapolation method: ASPC


 SCF WAVEFUNCTION OPTIMIZATION

  ----------------------------------- OT ---------------------------------------
  Minimizer      : DIIS                : direct inversion
                                         in the iterative subspace
                                         using   7 DIIS vectors
                                         safer DIIS on
  Preconditioner : FULL_ALL            : diagonalization, state selective
  Precond_solver : DEFAULT
  stepsize       :    0.15000000                  energy_gap     :    0.08000000
  eps_taylor     :   0.10000E-15                  max_taylor     :             4
  ----------------------------------- OT ---------------------------------------

  Step     Update method      Time    Convergence         Total energy    Change
  ------------------------------------------------------------------------------
  Decoupling Energy:                                               0.0371653928
  Recoupling Energy:                                              -0.0063753273
     1 OT DIIS     0.15E+00   16.5     0.00026675      -254.3373009338 -2.54E+02
  Decoupling Energy:                                               0.0371742925
  Recoupling Energy:                                              -0.0063754104
     2 OT DIIS     0.15E+00    3.9     0.00010698      -254.3379922648 -6.91E-04
  Decoupling Energy:                                               0.0371690689
  Recoupling Energy:                                              -0.0063753561
     3 OT DIIS     0.15E+00    3.9     0.00003982      -254.3381206802 -1.28E-04
  Decoupling Energy:                                               0.0371714935
  Recoupling Energy:                                              -0.0063753816
     4 OT DIIS     0.15E+00    3.9     0.00001260      -254.3381305198 -9.84E-06
  Decoupling Energy:                                               0.0371702409
  Recoupling Energy:                                              -0.0063753691
     5 OT DIIS     0.15E+00    3.9     0.00000541      -254.3381313487 -8.29E-07
  Decoupling Energy:                                               0.0371705236
  Recoupling Energy:                                              -0.0063753714
     6 OT DIIS     0.15E+00    3.9     0.00000190      -254.3381314864 -1.38E-07
  Decoupling Energy:                                               0.0371705415
  Recoupling Energy:                                              -0.0063753718
     7 OT DIIS     0.15E+00    3.9     0.00000064      -254.3381315052 -1.88E-08

  *** SCF run converged in     7 steps ***


  Electronic density on regular grids:       -179.9999999999        0.0000000001
  Core density on regular grids:              180.9999999999       -0.0000000001
  Total charge density on r-space grids:        1.0000000000
  Total charge density g-space grids:           1.0000000000

  Overlap energy of the core charge distribution:               0.00002358466132
  Self energy of the core charge distribution:               -615.71576003586028
  Core Hamiltonian energy:                                    191.34733018845023
  Hartree energy:                                             247.97609249859900
  Exchange-correlation energy:                                -61.44936983501079
  Hartree-Fock Exchange energy:                               -18.13041854802533
  QM/MM Electrostatic energy:                                   1.63397064199265

  Total energy:                                              -254.33813150519322

  outer SCF iter =    1 RMS gradient =   0.64E-06 energy =       -254.3381315052
  outer SCF loop converged in   1 iterations or    7 steps

  Decoupling Energy:                                               0.0371704653
  Recoupling Energy:                                              -0.0063753710

 ENERGY| Total FORCE_EVAL ( QMMM ) energy [a.u.]:          -1079.714053308115808

 MD| ***************************************************************************
 MD| Step number                                                               4
 MD| Time [fs]                                                          4.000000
 MD| Conserved quantity [hartree]                            -0.842113596903E+03
 MD| ---------------------------------------------------------------------------
 MD|                                          Instantaneous             Averages
 MD| CPU time per MD step [s]                    139.732656           182.572038
 MD| Energy drift per atom [K]           0.125938615967E+02   0.710282922257E+01
 MD| Potential energy [hartree]         -0.107971405331E+04  -0.107073927004E+04
 MD| Total kinetic energy [hartree]      0.237600456405E+03   0.227542982651E+03
 MD| QM kinetic energy [hartree]         0.148328310585E+00   0.124652414624E+00
 MD| Total temperature [K]                       297.869251           285.260638
 MD| QM temperature [K]                          459.199216           385.902670
 MD| ***************************************************************************

  Translating the system in order to center the QM fragment in the QM box.

 Number of electrons:                                                        180
 Number of occupied orbitals:                                                 90
 Number of molecular orbitals:                                                90

 Number of orbital functions:                                               1067
 Number of independent orbital functions:                                   1067

 Extrapolation method: ASPC


 SCF WAVEFUNCTION OPTIMIZATION

  ----------------------------------- OT ---------------------------------------
  Minimizer      : DIIS                : direct inversion
                                         in the iterative subspace
                                         using   7 DIIS vectors
                                         safer DIIS on
  Preconditioner : FULL_ALL            : diagonalization, state selective
  Precond_solver : DEFAULT
  stepsize       :    0.15000000                  energy_gap     :    0.08000000
  eps_taylor     :   0.10000E-15                  max_taylor     :             4
  ----------------------------------- OT ---------------------------------------

  Step     Update method      Time    Convergence         Total energy    Change
  ------------------------------------------------------------------------------
  Decoupling Energy:                                               0.0372103667
  Recoupling Energy:                                              -0.0063758467
     1 OT DIIS     0.15E+00   16.4     0.00032118      -253.7449333504 -2.54E+02
  Decoupling Energy:                                               0.0372071306
  Recoupling Energy:                                              -0.0063758010
     2 OT DIIS     0.15E+00    3.8     0.00013150      -253.7458495783 -9.16E-04
  Decoupling Energy:                                               0.0372093962
  Recoupling Energy:                                              -0.0063758220
     3 OT DIIS     0.15E+00    3.9     0.00006224      -253.7460079842 -1.58E-04
  Decoupling Energy:                                               0.0372088015
  Recoupling Energy:                                              -0.0063758152
     4 OT DIIS     0.15E+00    3.9     0.00002424      -253.7460390391 -3.11E-05
  Decoupling Energy:                                               0.0372096124
  Recoupling Energy:                                              -0.0063758219
     5 OT DIIS     0.15E+00    3.9     0.00000526      -253.7460415496 -2.51E-06
  Decoupling Energy:                                               0.0372093009
  Recoupling Energy:                                              -0.0063758193
     6 OT DIIS     0.15E+00    3.9     0.00000252      -253.7460416936 -1.44E-07
  Decoupling Energy:                                               0.0372092974
  Recoupling Energy:                                              -0.0063758191
     7 OT DIIS     0.15E+00    3.9     0.00000088      -253.7460417257 -3.21E-08

  *** SCF run converged in     7 steps ***


  Electronic density on regular grids:       -180.0000000000       -0.0000000000
  Core density on regular grids:              180.9999999999       -0.0000000001
  Total charge density on r-space grids:        0.9999999998
  Total charge density g-space grids:           0.9999999998

  Overlap energy of the core charge distribution:               0.00001841786384
  Self energy of the core charge distribution:               -615.71576003586028
  Core Hamiltonian energy:                                    191.22473865365708
  Hartree energy:                                             248.04795334178240
  Exchange-correlation energy:                                -61.41798882703220
  Hartree-Fock Exchange energy:                               -18.11952224719056
  QM/MM Electrostatic energy:                                   2.23451897103011

  Total energy:                                              -253.74604172574954

  outer SCF iter =    1 RMS gradient =   0.88E-06 energy =       -253.7460417257
  outer SCF loop converged in   1 iterations or    7 steps

  Decoupling Energy:                                               0.0372093267
  Recoupling Energy:                                              -0.0063758194

 ENERGY| Total FORCE_EVAL ( QMMM ) energy [a.u.]:          -1094.307011400405827

 MD| ***************************************************************************
 MD| Step number                                                               5
 MD| Time [fs]                                                          5.000000
 MD| Conserved quantity [hartree]                            -0.848389415407E+03
 MD| ---------------------------------------------------------------------------
 MD|                                          Instantaneous             Averages
 MD| CPU time per MD step [s]                    140.414787           174.140588
 MD| Energy drift per atom [K]           0.792355082241E+00   0.584073439450E+01
 MD| Potential energy [hartree]         -0.109430701140E+04  -0.107545281831E+04
 MD| Total kinetic energy [hartree]      0.245917595993E+03   0.231217905319E+03
 MD| QM kinetic energy [hartree]         0.157565811069E+00   0.131235093913E+00
 MD| Total temperature [K]                       308.296083           289.867727
 MD| QM temperature [K]                          487.796946           406.281525
 MD| ***************************************************************************

  Translating the system in order to center the QM fragment in the QM box.

 Number of electrons:                                                        180
 Number of occupied orbitals:                                                 90
 Number of molecular orbitals:                                                90

 Number of orbital functions:                                               1067
 Number of independent orbital functions:                                   1067

 Extrapolation method: ASPC


 SCF WAVEFUNCTION OPTIMIZATION

  ----------------------------------- OT ---------------------------------------
  Minimizer      : DIIS                : direct inversion
                                         in the iterative subspace
                                         using   7 DIIS vectors
                                         safer DIIS on
  Preconditioner : FULL_ALL            : diagonalization, state selective
  Precond_solver : DEFAULT
  stepsize       :    0.15000000                  energy_gap     :    0.08000000
  eps_taylor     :   0.10000E-15                  max_taylor     :             4
  ----------------------------------- OT ---------------------------------------

  Step     Update method      Time    Convergence         Total energy    Change
  ------------------------------------------------------------------------------
  Decoupling Energy:                                               0.0372438228
  Recoupling Energy:                                              -0.0063762153
     1 OT DIIS     0.15E+00   16.4     0.00048911      -253.1925223407 -2.53E+02
  Decoupling Energy:                                               0.0372420170
  Recoupling Energy:                                              -0.0063762274
     2 OT DIIS     0.15E+00    3.8     0.00019194      -253.1946664141 -2.14E-03
  Decoupling Energy:                                               0.0372396547
  Recoupling Energy:                                              -0.0063761947
     3 OT DIIS     0.15E+00    3.9     0.00008063      -253.1950228534 -3.56E-04
  Decoupling Energy:                                               0.0372398356
  Recoupling Energy:                                              -0.0063761985
     4 OT DIIS     0.15E+00    3.9     0.00002238      -253.1950816557 -5.88E-05
  Decoupling Energy:                                               0.0372388007
  Recoupling Energy:                                              -0.0063761870
     5 OT DIIS     0.15E+00    3.9     0.00000832      -253.1950842143 -2.56E-06
  Decoupling Energy:                                               0.0372394774
  Recoupling Energy:                                              -0.0063761928
     6 OT DIIS     0.15E+00    3.8     0.00000285      -253.1950845689 -3.55E-07
  Decoupling Energy:                                               0.0372392233
  Recoupling Energy:                                              -0.0063761904
     7 OT DIIS     0.15E+00    3.9     0.00000085      -253.1950846088 -4.00E-08

  *** SCF run converged in     7 steps ***


  Electronic density on regular grids:       -180.0000000000       -0.0000000000
  Core density on regular grids:              180.9999999999       -0.0000000001
  Total charge density on r-space grids:        0.9999999998
  Total charge density g-space grids:           0.9999999998

  Overlap energy of the core charge distribution:               0.00001843285917
  Self energy of the core charge distribution:               -615.71576003586028
  Core Hamiltonian energy:                                    191.21895034986881
  Hartree energy:                                             248.05853375144730
  Exchange-correlation energy:                                -61.40902860466464
  Hartree-Fock Exchange energy:                               -18.11645384273676
  QM/MM Electrostatic energy:                                   2.76865534025600

  Total energy:                                              -253.19508460883040

  outer SCF iter =    1 RMS gradient =   0.85E-06 energy =       -253.1950846088
  outer SCF loop converged in   1 iterations or    7 steps

  Decoupling Energy:                                               0.0372392188
  Recoupling Energy:                                              -0.0063761903

 ENERGY| Total FORCE_EVAL ( QMMM ) energy [a.u.]:          -1057.339965159226722

 MD| ***************************************************************************
 MD| Step number                                                               6
 MD| Time [fs]                                                          6.000000
 MD| Conserved quantity [hartree]                            -0.842900323011E+03
 MD| ---------------------------------------------------------------------------
 MD|                                          Instantaneous             Averages
 MD| CPU time per MD step [s]                    139.757455           168.410066
 MD| Energy drift per atom [K]           0.111144444852E+02   0.671968607628E+01
 MD| Potential energy [hartree]         -0.105733996516E+04  -0.107243400945E+04
 MD| Total kinetic energy [hartree]      0.214439642148E+03   0.228421528124E+03
 MD| QM kinetic energy [hartree]         0.141133801640E+00   0.132884878534E+00
 MD| Total temperature [K]                       268.833556           286.362032
 MD| QM temperature [K]                          436.926240           411.388978
 MD| ***************************************************************************

 -------------------------------------------------------------------------------
 -                                                                             -
 -                                DBCSR STATISTICS                             -
 -                                                                             -
 -------------------------------------------------------------------------------
 COUNTER                                    TOTAL       BLAS       SMM       ACC
 flops     9 x    26 x    26              2810808     100.0%      0.0%      0.0%
 flops    22 x    26 x    26              7287280     100.0%      0.0%      0.0%
 flops     9 x    32 x    32              8515584     100.0%      0.0%      0.0%
 flops    26 x    26 x    26             13709280     100.0%      0.0%      0.0%
 flops    22 x    32 x    32             22077440     100.0%      0.0%      0.0%
 flops    26 x    26 x    32             33745920     100.0%      0.0%      0.0%
 flops    26 x    32 x    26             33745920     100.0%      0.0%      0.0%
 flops    32 x    26 x    26             33745920     100.0%      0.0%      0.0%
 flops    26 x    26 x   128             39975936     100.0%      0.0%      0.0%
 flops   128 x    26 x    26             48455680     100.0%      0.0%      0.0%
 flops    32 x    32 x    26             83066880     100.0%      0.0%      0.0%
 flops    26 x    32 x    32             83066880     100.0%      0.0%      0.0%
 flops    32 x    26 x    32             83066880     100.0%      0.0%      0.0%
 flops    26 x    26 x   137             85573488     100.0%      0.0%      0.0%
 flops    26 x    32 x   128             98402304     100.0%      0.0%      0.0%
 flops    32 x    26 x   128             98402304     100.0%      0.0%      0.0%
 flops   137 x    26 x    26            103725440     100.0%      0.0%      0.0%
 flops   128 x    26 x   128            107347968     100.0%      0.0%      0.0%
 flops   128 x    26 x    32            119275520     100.0%      0.0%      0.0%
 flops   128 x    32 x    26            119275520     100.0%      0.0%      0.0%
 flops     9 x     9 x    26            165405240     100.0%      0.0%      0.0%
 flops    32 x    32 x    32            204472320     100.0%      0.0%      0.0%
 flops    26 x    26 x   133            207687480     100.0%      0.0%      0.0%
 flops    26 x    32 x   137            210642432     100.0%      0.0%      0.0%
 flops    32 x    26 x   137            210642432     100.0%      0.0%      0.0%
 flops   128 x    26 x   137            229791744     100.0%      0.0%      0.0%
 flops   137 x    26 x   128            229791744     100.0%      0.0%      0.0%
 flops    32 x    32 x   128            242221056     100.0%      0.0%      0.0%
 flops   133 x    26 x    26            251742400     100.0%      0.0%      0.0%
 flops   137 x    26 x    32            255324160     100.0%      0.0%      0.0%
 flops   137 x    32 x    26            255324160     100.0%      0.0%      0.0%
 flops   128 x    32 x   128            264241152     100.0%      0.0%      0.0%
 flops   128 x    32 x    32            293601280     100.0%      0.0%      0.0%
 flops     9 x     9 x    32            407151360     100.0%      0.0%      0.0%
 flops    22 x     9 x    26            415855440     100.0%      0.0%      0.0%
 flops     9 x    22 x    26            416576160     100.0%      0.0%      0.0%
 flops   137 x    26 x   137            491897952     100.0%      0.0%      0.0%
 flops    26 x    32 x   133            511230720     100.0%      0.0%      0.0%
 flops    32 x    26 x   133            511230720     100.0%      0.0%      0.0%
 flops    32 x    32 x   137            518504448     100.0%      0.0%      0.0%
 flops   133 x    26 x   128            557706240     100.0%      0.0%      0.0%
 flops   128 x    26 x   133            557706240     100.0%      0.0%      0.0%
 flops   128 x    32 x   137            565641216     100.0%      0.0%      0.0%
 flops   137 x    32 x   128            565641216     100.0%      0.0%      0.0%
 flops   133 x    32 x    26            619673600     100.0%      0.0%      0.0%
 flops   133 x    26 x    32            619673600     100.0%      0.0%      0.0%
 flops   137 x    32 x    32            628490240     100.0%      0.0%      0.0%
 flops     9 x    26 x     9            802701900     100.0%      0.0%      0.0%
 flops    22 x     9 x    32           1023644160     100.0%      0.0%      0.0%
 flops     9 x    22 x    32           1025418240     100.0%      0.0%      0.0%
 flops    22 x    22 x    26           1109908800     100.0%      0.0%      0.0%
 flops   133 x    26 x   137           1193839920     100.0%      0.0%      0.0%
 flops   137 x    26 x   133           1193839920     100.0%      0.0%      0.0%
 flops   137 x    32 x   137           1210825728     100.0%      0.0%      0.0%
 flops    32 x    32 x   133           1258414080     100.0%      0.0%      0.0%
 flops   133 x    32 x   128           1372815360     100.0%      0.0%      0.0%
 flops   128 x    32 x   133           1372815360     100.0%      0.0%      0.0%
 flops   133 x    32 x    32           1525350400     100.0%      0.0%      0.0%
 flops     9 x    32 x     9           1975881600     100.0%      0.0%      0.0%
 flops    22 x    26 x     9           2081079000     100.0%      0.0%      0.0%
 flops     9 x    26 x    22           2081079000     100.0%      0.0%      0.0%
 flops    22 x    22 x    32           2732083200     100.0%      0.0%      0.0%
 flops   133 x    26 x   133           2897458200     100.0%      0.0%      0.0%
 flops   133 x    32 x   137           2938682880     100.0%      0.0%      0.0%
 flops   137 x    32 x   133           2938682880     100.0%      0.0%      0.0%
 flops    22 x    32 x     9           5122656000     100.0%      0.0%      0.0%
 flops     9 x    32 x    22           5122656000     100.0%      0.0%      0.0%
 flops    22 x    26 x    22           5395390000     100.0%      0.0%      0.0%
 flops   133 x    32 x   133           7132204800     100.0%      0.0%      0.0%
 flops    22 x    32 x    22          13280960000     100.0%      0.0%      0.0%
 flops inhomo. stacks                           0       0.0%      0.0%      0.0%
 flops total                        78.421527E+09     100.0%      0.0%      0.0%
 flops max/rank                      3.655448E+09     100.0%      0.0%      0.0%
 matmuls inhomo. stacks                         0       0.0%      0.0%      0.0%
 matmuls total                            2993202     100.0%      0.0%      0.0%
 number of processed stacks                260010     100.0%      0.0%      0.0%
 average stack size                                    11.5       0.0       0.0
 marketing flops                    85.671830E+09
 -------------------------------------------------------------------------------
 # multiplications                           1286
 max memory usage/rank               1.832956E+09
 # max total images/rank                        1
 # max 3D layers                                1
 # MPI messages exchanged                 1152256
 MPI messages size (bytes):
  total size                        26.071108E+09
  min size                           0.000000E+00
  max size                         150.152000E+03
  average size                      22.626143E+03
 MPI breakdown and total messages size (bytes):
             size <=      128              750561                        0
       128 < size <=     8192               66927                481883808
      8192 < size <=    32768               83300               2394641760
     32768 < size <=   131072              118727               4280966144
    131072 < size <=  4194304              132741              18914201880
   4194304 < size <= 16777216                   0                        0
  16777216 < size                               0                        0
 -------------------------------------------------------------------------------
 -                                                                             -
 -                      DBCSR MESSAGE PASSING PERFORMANCE                      -
 -                                                                             -
 -------------------------------------------------------------------------------
 ROUTINE             CALLS      AVE VOLUME [Bytes]
 MP_Bcast               71                     12.
 MP_Allreduce         6890                      8.
 MP_Alltoall          5344                  12862.
 MP_ISend            41124                  13423.
 MP_IRecv            41124                  12856.
 -------------------------------------------------------------------------------

 -------------------------------------------------------------------------------
 -                                                                             -
 -                                GRID STATISTICS                              -
 -                                                                             -
 -------------------------------------------------------------------------------
 LP    KERNEL             BACKEND                              COUNT     PERCENT
 2     collocate ortho    REF                                1126269      19.05%
 2     integrate ortho    REF                                1106014      18.71%
 1     collocate ortho    REF                                 943978      15.97%
 1     integrate ortho    REF                                 870340      14.72%
 3     integrate ortho    REF                                 570062       9.64%
 3     collocate ortho    REF                                 500530       8.47%
 0     collocate ortho    REF                                 281245       4.76%
 0     integrate ortho    REF                                 249988       4.23%
 4     integrate ortho    REF                                 121240       2.05%
 4     collocate ortho    REF                                  73823       1.25%
 0     collocate general  REF                                  30464       0.52%
 1     integrate general  REF                                  30464       0.52%
 5     integrate ortho    REF                                   8201       0.14%
 -------------------------------------------------------------------------------

 MEMORY| Estimated peak process memory [MiB]                                1836

 -------------------------------------------------------------------------------
 -                                                                             -
 -                         MESSAGE PASSING PERFORMANCE                         -
 -                                                                             -
 -------------------------------------------------------------------------------

 ROUTINE             CALLS      AVE VOLUME [Bytes]
 MP_Group                8
 MP_Bcast             6942               10565479.
 MP_Allreduce         2477                1659281.
 MP_Sync               437
 MP_Alltoall          1344               17978175.
 MP_ISendRecv        26019                  64202.
 MP_Wait             33670
 MP_comm_split          21
 MP_ISend             6475                 556371.
 MP_IRecv             6468                 556115.
 MP_Recv                49                 102432.
 -------------------------------------------------------------------------------


 -------------------------------------------------------------------------------
 -                                                                             -
 -                           R E F E R E N C E S                               -
 -                                                                             -
 -------------------------------------------------------------------------------
 
 CP2K version 8.2, the CP2K developers group (2021).
 CP2K is freely available from https://www.cp2k.org/ .

 Kuehne,Thomas D.; Iannuzzi,Marcella; Del Ben,Mauro;
 Rybkin,Vladimir V.; Seewald,Patrick; Stein,Frederick; Laino,Teodoro;
 Khaliullin,Rustam Z.; Schuett,Ole; Schiffmann,Florian; Golze,Dorothea;
 Wilhelm,Jan; Chulkov,Sergey; Bani-Hashemian,Mohammad Hossein;
 Weber,Valery; Borstnik,Urban; Taillefumier,Mathieu;
 Jakobovits,Alice Shoshana; Lazzaro,Alfio; Pabst,Hans; Mueller,Tiziano;
 Schade,Robert; Guidon,Manuel; Andermatt,Samuel; Holmberg,Nico;
 Schenter,Gregory K.; Hehn,Anna; Bussy,Augustin; Belleflamme,Fabian;
 Tabacchi,Gloria; Gloess,Andreas; Lass,Michael; Bethune,Iain;
 Mundy,Christopher J.; Plessl,Christian; Watkins,Matt;
 VandeVondele,Joost; Krack,Matthias; Hutter,Juerg. 
 The Journal of Chemical Physics, 152 (19), (2020). 
 CP2K: An electronic structure and molecular dynamics software package -
 Quickstep: Efficient and accurate electronic structure calculations.
 https://doi.org/10.1063/5.0007045

 Schuett, Ole; Messmer, Peter; Hutter, Juerg; VandeVondele, Joost. 
 Electronic Structure Calculations on Graphics Processing Units, John
 Wiley & Sons, Ltd, 173-190 (2016). 
 GPU-Accelerated Sparse Matrix-Matrix Multiplication for
 Linear Scaling Density Functional Theory.
 https://doi.org/10.1002/9781118670712.ch8

 Borstnik, U; VandeVondele, J; Weber, V; Hutter, J. 
 PARALLEL COMPUTING, 40 (5-6), 47-58 (2014). 
 Sparse matrix multiplication: The distributed block-compressed sparse
 row library.
 https://doi.org/10.1016/j.parco.2014.03.012

 Hutter, J; Iannuzzi, M; Schiffmann, F; VandeVondele, J. 
 WIREs Comput Mol Sci., 4 (1), 15-25 (2014). 
 CP2K: atomistic simulations of condensed matter systems.
 https://doi.org/10.1002/wcms.1159

 Marek, A; Blum, V; Johanni, R; Havu, V; Lang, B; Auckenthaler, T;
 Heinecke, A; Bungartz, H; Lederer, H. 
 Journal of Physics: Condensed Matter, 26 (21), (2014). 
 The ELPA library: scalable parallel eigenvalue solutions for
 electronic structure
 theory and computational science.
 https://doi.org/10.1088/0953-8984/26/21/213201

 Guidon, M; Hutter, J; VandeVondele, J. 
 JOURNAL OF CHEMICAL THEORY AND COMPUTATION, 5 (11), 3010-3021 (2009). 
 Robust Periodic Hartree-Fock Exchange for Large-Scale Simulations Using
 Gaussian Basis Sets.
 https://doi.org/10.1021/ct900494g

 Guidon, M; Schiffmann, F; Hutter, J; VandeVondele, J. 
 JOURNAL OF CHEMICAL PHYSICS, 128 (21), 214104 (2008). 
 Ab initio molecular dynamics using hybrid density functionals.
 https://doi.org/10.1063/1.2931945

 Kuhne, TD; Krack, M; Mohamed, FR; Parrinello, M. 
 PHYSICAL REVIEW LETTERS, 98 (6), 066401 (2007). 
 Efficient and accurate Car-Parrinello-like approach to
 Born-Oppenheimer molecular dynamics.
 https://doi.org/10.1103/PhysRevLett.98.066401

 Laino, T; Mohamed, F; Laio, A; Parrinello, M. 
 JOURNAL OF CHEMICAL THEORY AND COMPUTATION, 2 (5), 1370-1378 (2006). 
 An efficient linear-scaling electrostatic coupling for treating
 periodic boundary conditions in QM/MM simulations.
 https://doi.org/10.1021/ct6001169

 Laino, T; Mohamed, F; Laio, A; Parrinello, M. 
 JOURNAL OF CHEMICAL THEORY AND COMPUTATION, 1 (6), 1176-1184 (2005). 
 An efficient real space multigrid QM/MM electrostatic coupling.
 https://doi.org/10.1021/ct050123f

 Krack, M. 
 THEORETICAL CHEMISTRY ACCOUNTS, 114 (1-3), 145-152 (2005). 
 Pseudopotentials for H to Kr optimized for gradient-corrected
 exchange-correlation functionals.
 https://doi.org/10.1007/s00214-005-0655-y

 VandeVondele, J; Krack, M; Mohamed, F; Parrinello, M; Chassaing, T;
 Hutter, J. COMPUTER PHYSICS COMMUNICATIONS, 167 (2), 103-128 (2005). 
 QUICKSTEP: Fast and accurate density functional calculations using a
 mixed Gaussian and plane waves approach.
 https://doi.org/10.1016/j.cpc.2004.12.014

 Frigo, M; Johnson, SG. 
 PROCEEDINGS OF THE IEEE, 93 (2), 216-231 (2005). 
 The design and implementation of FFTW3.
 https://doi.org/10.1109/JPROC.2004.840301

 Kolafa, J. 
 JOURNAL OF COMPUTATIONAL CHEMISTRY, 25 (3), 335-342 (2004). 
 Time-reversible always stable predictor-corrector method for molecular dynamics of polarizable molecules.
 https://doi.org/10.1002/jcc.10385

 VandeVondele, J; Hutter, J. 
 JOURNAL OF CHEMICAL PHYSICS, 118 (10), 4365-4369 (2003). 
 An efficient orbital transformation method for electronic structure
 calculations.
 https://doi.org/10.1063/1.1543154

 Hartwigsen, C; Goedecker, S; Hutter, J. 
 PHYSICAL REVIEW B, 58 (7), 3641-3662 (1998). 
 Relativistic separable dual-space Gaussian pseudopotentials from H to Rn.
 https://doi.org/10.1103/PhysRevB.58.3641

 Lippert, G; Hutter, J; Parrinello, M. 
 MOLECULAR PHYSICS, 92 (3), 477-487 (1997). 
 A hybrid Gaussian and plane wave density functional scheme.
 https://doi.org/10.1080/002689797170220

 Perdew, JP; Burke, K; Ernzerhof, M. 
 PHYSICAL REVIEW LETTERS, 77 (18), 3865-3868 (1996). 
 Generalized gradient approximation made simple.
 https://doi.org/10.1103/PhysRevLett.77.3865

 Goedecker, S; Teter, M; Hutter, J. 
 PHYSICAL REVIEW B, 54 (3), 1703-1710 (1996). 
 Separable dual-space Gaussian pseudopotentials.
 https://doi.org/10.1103/PhysRevB.54.1703

 ESSMANN, U; PERERA, L; BERKOWITZ, ML; DARDEN, T; LEE, H; PEDERSEN, LG. 
 JOURNAL OF CHEMICAL PHYSICS, 103 (19), 8577-8593 (1995). 
 A SMOOTH PARTICLE MESH EWALD METHOD.
 https://doi.org/10.1063/1.470117

 BLOCHL, PE. 
 JOURNAL OF CHEMICAL PHYSICS, 103 (17), 7422-7428 (1995). 
 ELECTROSTATIC DECOUPLING OF PERIODIC IMAGES OF PLANE-WAVE-EXPANDED
 DENSITIES AND DERIVED ATOMIC POINT CHARGES.
 https://doi.org/10.1063/1.470314


 -------------------------------------------------------------------------------
 -                                                                             -
 -                                T I M I N G                                  -
 -                                                                             -
 -------------------------------------------------------------------------------
 SUBROUTINE                       CALLS  ASD         SELF TIME        TOTAL TIME
                                MAXIMUM       AVERAGE  MAXIMUM  AVERAGE  MAXIMUM
 CP2K                                 1  1.0    0.491    0.599 1068.379 1068.380
 qs_mol_dyn_low                       1  2.0    0.025    0.028 1011.713 1013.478
 velocity_verlet                      6  3.0    0.132    0.135  854.569  854.615
 qs_forces                            7  3.9    0.001    0.002  617.273  617.277
 rebuild_ks_matrix                   63  8.5    0.000    0.001  576.059  576.072
 qs_ks_build_kohn_sham_matrix        63  9.5    0.011    0.013  576.059  576.072
 hfx_ks_matrix                       63 10.5    0.003    0.003  462.268  462.268
 qs_energies                          7  4.9    0.001    0.001  319.683  319.715
 scf_env_do_scf                       7  5.9    0.000    0.001  313.456  313.457
 qs_ks_update_qs_env_forces           7  4.9    0.000    0.000  297.340  297.342
 qs_ks_update_qs_env                 63  7.8    0.001    0.001  278.726  278.738
 derivatives_four_center              7  8.9    0.019    0.315  271.996  271.996
 derivatives_four_center_main         7  9.9    0.002    0.002  271.324  271.324
 derivatives_four_center_bin        461 10.9  268.445  271.067  268.445  271.067
 qmmm_forces                          7  3.9    0.129    0.133  225.009  225.012
 qmmm_forces_with_gaussian            7  4.9    7.131    7.570  222.135  223.751
 scf_env_do_scf_inner_loop           56  6.8    0.001    0.004  195.193  195.205
 integrate_four_center               63 11.5    0.359    0.646  190.261  190.261
 integrate_four_center_main          63 12.5    0.018    0.019  183.260  184.107
 integrate_four_center_bin         4032 13.5  183.242  184.090  183.242  184.090
 qmmm_el_coupling                     7  3.9    0.000    0.000  158.639  159.674
 qmmm_elec_with_gaussian              7  4.9    6.059    6.550  158.616  159.648
 qmmm_force_with_gaussian_low         7  5.9    0.000    0.000  122.831  123.095
 init_scf_loop                        7  6.9    0.000    0.001  118.247  118.248
 qmmm_forces_gaussian_low_R           7  6.9    0.000    0.000  103.090  103.187
 qmmm_forces_with_gaussian_LG         7  7.9  103.090  103.187  103.090  103.187
 pw_transfer                       1337 12.0    0.122    0.148   84.680   87.992
 fft_wrap_pw1pw2                   1113 13.1    0.018    0.021   82.646   85.947
 fft_wrap_pw1pw2_200                707 14.4    9.883   10.263   81.337   84.489
 pw_restrict_s3                      21  5.9   21.261   22.080   81.853   83.454
 qmmm_elec_with_gaussian_low          7  5.9    0.000    0.000   80.944   81.306
 qmmm_elec_gaussian_low_R             7  6.9    0.000    0.000   72.442   72.610
 qmmm_elec_with_gaussian_LG           7  7.9   72.441   72.610   72.441   72.610
 qs_vxc_create                       63 10.5    0.002    0.003   68.252   68.258
 xc_vxc_pw_create                    63 11.5    1.048    1.669   68.250   68.256
 pw_integral_ab                    2967  7.5   65.988   67.834   66.238   68.025
 fft3d_ps                          1113 15.1   35.241   36.145   57.917   61.680
 qmmm_elec_with_gaussian:spline       7  5.9    0.000    0.000   60.628   61.676
 pw_prolongate_s3                    21  6.9   15.682   15.999   60.628   61.676
 qmmm_env_create                      1  2.0    9.698    9.743   54.437   54.441
 fist_init                            1  3.0    0.000    0.000   40.689   40.689
 qs_rho_update_rho                   63  7.9    0.001    0.001   36.062   36.073
 calculate_rho_elec                  63  8.9    0.126    0.137   36.061   36.072
 xc_rho_set_and_dset_create          63 12.5    0.586    0.593   31.353   34.097
 density_rs2pw                       63  9.9    0.005    0.005   31.179   32.806
 rs_pw_transfer                     546 11.8    0.011    0.013   28.083   29.791
 sum_up_and_integrate                63 10.5    0.288    0.302   28.841   28.871
 integrate_v_rspace                  63 11.5    0.003    0.004   28.553   28.587
 force_field_control                  1  4.0    0.000    0.000   23.999   24.309
 pw_axpy                           1914  8.3   21.864   22.343   21.864   22.343
 mp_sum_dm3                          38  5.7   19.701   21.633   19.701   21.633
 -------------------------------------------------------------------------------

 The number of warnings for this run is : 0
 
 -------------------------------------------------------------------------------
  **** **** ******  **  PROGRAM ENDED AT                 2021-08-31 18:11:15.096
 ***** ** ***  *** **   PROGRAM RAN ON                                 nid001142
 **    ****   ******    PROGRAM RAN BY                                     hjbio
 ***** **    ** ** **   PROGRAM PROCESS ID                                 21352
  **** **  *******  **  PROGRAM STOPPED IN /lus/cls01095/work/d118/d118/hjbio/qm
                                           mm-benchmarking/archer2/CPU/cp2kMD/CB
                                           D_PHY-PBE0/6STEPS/1NODES/64CPN/1THREA
                                           DS
