 DBCSR| CPU Multiplication driver                                           BLAS
 DBCSR| Multrec recursion limit                                              512
 DBCSR| Multiplication stack size                                           1000
 DBCSR| Maximum elements for images                                    UNLIMITED
 DBCSR| Multiplicative factor virtual images                                   1
 DBCSR| Use multiplication densification                                       T
 DBCSR| Multiplication size stacks                                             3
 DBCSR| Use memory pool for CPU allocation                                     F
 DBCSR| Number of 3D layers                                               SINGLE
 DBCSR| Use MPI memory allocation                                              F
 DBCSR| Use RMA algorithm                                                      F
 DBCSR| Use Communication thread                                               T
 DBCSR| Communication thread load                                             60
 DBCSR| MPI: My node id                                                        0
 DBCSR| MPI: Number of nodes                                                 128
 DBCSR| OMP: Current number of threads                                         8
 DBCSR| OMP: Max number of threads                                             8
 DBCSR| Split modifier for TAS multiplication algorithm                  1.0E+00


  **** **** ******  **  PROGRAM STARTED AT               2021-12-10 16:26:11.036
 ***** ** ***  *** **   PROGRAM STARTED ON                             nid004134
 **    ****   ******    PROGRAM STARTED BY                                 hjbio
 ***** **    ** ** **   PROGRAM PROCESS ID                                225901
  **** **  *******  **  PROGRAM STARTED IN /mnt/lustre/a2fs-work1/work/d118/d118
                                           /hjbio/CP2K/qmmm-benchmarking/CPU/cp2
                                           kMD/ClC-253-B3LYP/1STEPS/8NODES/128CP
                                           N/8THREADS

 CP2K| version string:                                          CP2K version 8.2
 CP2K| source code revision number:                                  git:310b7ab
 CP2K| cp2kflags: omp libint fftw3 libxc elpa parallel mpi3 scalapack plumed2   
 CP2K| is freely available from                            https://www.cp2k.org/
 CP2K| Program compiled at                          Thu Dec  2 10:30:45 GMT 2021
 CP2K| Program compiled on                                                  ln02
 CP2K| Program compiled for                                              ARCHER2
 CP2K| Data directory path         /work/y07/shared/apps/core/cp2k/cp2k-8.2/data
 CP2K| Input file name                                          ClC-253-cp2k.inp

 GLOBAL| Force Environment number                                              1
 GLOBAL| Basis set file name                                     EMSL_BASIS_SETS
 GLOBAL| Potential file name                                           POTENTIAL
 GLOBAL| MM Potential file name                                     MM_POTENTIAL
 GLOBAL| Coordinate file name                                            ClC.pdb
 GLOBAL| Method name                                                        CP2K
 GLOBAL| Project name                                              ClC-253-B3LYP
 GLOBAL| Run type                                                             MD
 GLOBAL| FFT library                                                       FFTW3
 GLOBAL| Diagonalization library                                            ELPA
 GLOBAL| Minimum number of eigenvectors for ELPA usage                        16
 GLOBAL| Orthonormality check for eigenvectors                          DISABLED
 GLOBAL| Matrix multiplication library                                    SCALAP
 GLOBAL| All-to-all communication in single precision                          F
 GLOBAL| FFTs using library dependent lengths                                  F
 GLOBAL| Grid backend                                                       AUTO
 GLOBAL| Global print level                                                  LOW
 GLOBAL| MPI I/O enabled                                                       T
 GLOBAL| Total number of message passing processes                           128
 GLOBAL| Number of threads for this process                                    8
 GLOBAL| This output is from process                                           0
 GLOBAL| CPU model name                          AMD EPYC 7742 64-Core Processor
 GLOBAL| CPUID                                                              1002

 MEMORY| system memory details [Kb]
 MEMORY|                        rank 0           min           max       average
 MEMORY| MemTotal            263528088     263528084     263528088     263528085
 MEMORY| MemFree             252304568     252211836     252497848     252356677
 MEMORY| Buffers                 24704         17428         26856         21504
 MEMORY| Cached                 787224        733480        787224        755159
 MEMORY| Slab                  1575348       1563888       1586452       1572328
 MEMORY| SReclaimable            87588         78404         87588         82754
 MEMORY| MemLikelyFree       253204084     253049780     253331136     253216096



                      ************* ******** ***********   
                     ************* **********************  
                     ****     **** ****      ***********   
                     ******** ****  *******     ****       
                     *******  ****   *******   ****        
                     ****     ****       ****  ****        
                     ****     **** **********  ****        
                      ****     **** ********    ****       
                     FRONTIERS IN SIMULATION TECHNOLOGY    
                                                           
                        C.J. Mundy, S. Balasubramanian,    
                     Ken Bagchi, J. Hutter, Ari Seitsonen  
                      IFW Kuo, T. Laino, J. VandeVondele   
                                 Version 1.0               

                                                           


 EWALD| Summation is done by:                                               SPME
 EWALD| Alpha parameter [       ANGSTROM^-1]                              0.4000
 EWALD| Real Space Cutoff [          ANGSTROM]                            8.4348
 EWALD| G-space max. Miller index                         80        80        80
 EWALD| Spline interpolation order                                             6

 FORCEFIELD| WARNING: A non Critical ForceField parameter is missing! CP2K GOES!
 FORCEFIELD| Non critical parameters are:Urey-Bradley,Torsions,Impropers, Opbends and 1-4
 FORCEFIELD| All missing parameters will not contribute to the potential energy!
 FORCEFIELD| Activate the print key FF_INFO to have a list of missing parameters

 CHARGE_INFO| Total Charge of the Classical System:                     2.369895

 SPLINE_INFO| Generating 85491 splines for NONBONDED14 interactions 
              Due to 413 different atomic kinds
  ...8549  ...17098  ...25647  ...34196  ...42745  ...51294  ...59843  ...68392  ...76941  ...85490
 SPLINE_INFO| Number of unique splines computed:            254
 SPLINE_INFO| Done

 SPLINE_INFO| Generating 85491 splines for NONBONDED interactions 
              Due to 413 different atomic kinds
  ...8549  ...17098  ...25647  ...34196  ...42745  ...51294  ...59843  ...68392  ...76941  ...85490
 SPLINE_INFO| Number of unique splines computed:            254
 SPLINE_INFO| Done

 *******************************************************************************
 *******************************************************************************
 **                                                                           **
 **     #####                         ##              ##                      **
 **    ##   ##            ##          ##              ##                      **
 **   ##     ##                       ##            ######                    **
 **   ##     ##  ##   ##  ##   #####  ##  ##   ####   ##    #####    #####    **
 **   ##     ##  ##   ##  ##  ##      ## ##   ##      ##   ##   ##  ##   ##   **
 **   ##  ## ##  ##   ##  ##  ##      ####     ###    ##   ######   ######    **
 **    ##  ###   ##   ##  ##  ##      ## ##      ##   ##   ##       ##        **
 **     #######   #####   ##   #####  ##  ##  ####    ##    #####   ##        **
 **           ##                                                    ##        **
 **                                                                           **
 **                                                ... make the atoms dance   **
 **                                                                           **
 **            Copyright (C) by CP2K developers group (2000-2021)             **
 **                      J. Chem. Phys. 152, 194103 (2020)                    **
 **                                                                           **
 *******************************************************************************


 TOTAL NUMBERS AND MAXIMUM NUMBERS

  Total number of            - Atomic kinds:                                   6
                             - Atoms:                                        253
                             - Shell sets:                                   876
                             - Shells:                                      1109
                             - Primitive Cartesian functions:               1967
                             - Cartesian basis functions:                   2429
                             - Spherical basis functions:                   2313

  Maximum angular momentum of- Orbital basis functions:                        2
                             - Local part of the GTH pseudopotential:          2
                             - Non-local part of the GTH pseudopotential:      2


 SCF PARAMETERS         Density guess:                                   RESTART
                        --------------------------------------------------------
                        max_scf:                                              50
                        max_scf_history:                                       0
                        max_diis:                                              4
                        --------------------------------------------------------
                        eps_scf:                                        1.00E-06
                        eps_scf_history:                                0.00E+00
                        eps_diis:                                       1.00E-01
                        eps_eigval:                                     1.00E-05
                        --------------------------------------------------------
                        level_shift [a.u.]:                                 0.00
                        --------------------------------------------------------
                        Outer loop SCF in use 
                        No variables optimised in outer loop
                        eps_scf                                         1.00E-06
                        max_scf                                               20
                        No outer loop optimization
                        step_size                                       5.00E-01

 *******************************************************************************
 *******************************************************************************
 **                                                                           **
 **             #######  ##     ## ##     ## ##     ##                        **
 **            ##     ## ###   ### ###   ### ###   ###                        **
 **            ##     ## #### #### #### #### #### ####                        **
 **            ##     ## ## ### ## ## ### ## ## ### ##                        **
 **            ##  ## ## ##     ## ##     ## ##     ##                        **
 **            ##    ##  ##     ## ##     ## ##     ##  T.Laino and F.Mohamed **
 **             ##### ## ##     ## ##     ## ##     ##  2005 - 2015           **
 **                                                                           **
 **                                                     Calculation Started.. **
 *******************************************************************************
 *******************************************************************************

 MD_PAR| Molecular dynamics protocol (MD input parameters)
 MD_PAR| Ensemble type                                                       NVE
 MD_PAR| Number of time steps                                                  1
 MD_PAR| Time step [fs]                                                 1.000000
 MD_PAR| Temperature [K]                                              300.000000
 MD_PAR| Temperature tolerance [K]                                      0.000000
 MD_PAR| Print MD information every                                    1 step(s)
 MD_PAR| File type   Print frequency [steps]                          File names
 MD_PAR| Coordinates          1                          ClC-253-B3LYP-pos-1.xyz
 MD_PAR| Velocities           1                          ClC-253-B3LYP-vel-1.xyz
 MD_PAR| Energies             1                             ClC-253-B3LYP-1.ener
 MD_PAR| Dump                20                          ClC-253-B3LYP-1.restart

 ROT| Rotational analysis information
 ROT| Principal axes and moments of inertia [a.u.]
 ROT|                           1                   2                   3
 ROT| Eigenvalues      1.18228221563E+13   1.18772146411E+13   1.55923586977E+13
 ROT|      x             -0.973134378681     -0.230223222672      0.002597839626
 ROT|      y             -0.230225448758      0.973137141292     -0.000589052320
 ROT|      z              0.002392440703      0.001171315857      0.999996452117
 ROT| Number of rotovibrational vectors                                        6

 DOF| Calculation of degrees of freedom
 DOF| Number of atoms                                                     150925
 DOF| Number of intramolecular constraints                                     0
 DOF| Number of intermolecular constraints                                     0
 DOF| Invariants (translations + rotations)                                    3
 DOF| Degrees of freedom                                                  452772

 DOF| Restraints information
 DOF| Number of intramolecular restraints                                      0
 DOF| Number of intermolecular restraints                                      0

 MD_VEL| Velocities initialization
 MD_VEL| Initial temperature [K]                                      300.000000
 MD_VEL| COM velocity            -0.0000000000     0.0000000000     0.0000000000

  Translating the system in order to center the QM fragment in the QM box.

 Number of electrons:                                                        654
 Number of occupied orbitals:                                                327
 Number of molecular orbitals:                                               327

 Number of orbital functions:                                               2313
 Number of independent orbital functions:                                   2313

 Extrapolation method: initial_guess


 SCF WAVEFUNCTION OPTIMIZATION

  ----------------------------------- OT ---------------------------------------
  Minimizer      : DIIS                : direct inversion
                                         in the iterative subspace
                                         using   7 DIIS vectors
                                         safer DIIS on
  Preconditioner : FULL_ALL            : diagonalization, state selective
  Precond_solver : DEFAULT
  stepsize       :    0.15000000                  energy_gap     :    0.08000000
  eps_taylor     :   0.10000E-15                  max_taylor     :             4
  ----------------------------------- OT ---------------------------------------

  Step     Update method      Time    Convergence         Total energy    Change
  ------------------------------------------------------------------------------
  Decoupling Energy:                                               0.0652965565
  Recoupling Energy:                                              -0.0067743629

 *** WARNING in hfx_energy_potential.F:592 :: The Kohn Sham matrix is not  ***
 *** 100% occupied. This may result in incorrect Hartree-Fock results. Try ***
 *** to decrease EPS_PGF_ORB and EPS_FILTER_MATRIX in the QS section. For  ***
 *** more information see FAQ: https://www.cp2k.org/faq:hfx_eps_warning    ***

     1 OT DIIS     0.15E+00   14.8     0.00000147     -1097.2146398364 -1.10E+03
  Decoupling Energy:                                               0.0652912916
  Recoupling Energy:                                              -0.0067742599
     2 OT DIIS     0.15E+00    1.2     0.00000228     -1097.2146398847 -4.83E-08
  Decoupling Energy:                                               0.0652926349
  Recoupling Energy:                                              -0.0067742782
     3 OT DIIS     0.15E+00    1.2     0.00000108     -1097.2146399880 -1.03E-07
  Decoupling Energy:                                               0.0652927569
  Recoupling Energy:                                              -0.0067742854
     4 OT DIIS     0.15E+00    1.2     0.00000091     -1097.2146400405 -5.25E-08

  *** SCF run converged in     4 steps ***


  Electronic density on regular grids:       -654.0001611163       -0.0001611163
  Core density on regular grids:              654.9999999993       -0.0000000007
  Total charge density on r-space grids:        0.9998388831
  Total charge density g-space grids:           0.9998388831

  Overlap energy of the core charge distribution:               0.00004213532864
  Self energy of the core charge distribution:              -2459.11679630764229
  Core Hamiltonian energy:                                    757.75939632524478
  Hartree energy:                                            1000.45244191767722
  Exchange-correlation energy:                               -243.02999618370922
  Hartree-Fock Exchange energy:                               -54.33827195783389
  QM/MM Electrostatic energy:                                 -98.94145596953416

  Total energy:                                             -1097.21464004046857

  outer SCF iter =    1 RMS gradient =   0.91E-06 energy =      -1097.2146400405
  outer SCF loop converged in   1 iterations or    4 steps

  Decoupling Energy:                                               0.0652923664
  Recoupling Energy:                                              -0.0067742723

 ENERGY| Total FORCE_EVAL ( QMMM ) energy [a.u.]:          -1468.298508616263462

 MD_INI| MD initialization
 MD_INI| Potential energy [hartree]                          -0.146829850862E+04
 MD_INI| Total kinetic energy [hartree]                       0.215076797492E+03
 MD_INI| QM kinetic energy [hartree]                          0.369606607592E+00
 MD_INI| Total temperature [K]                                        300.000000
 MD_INI| QM temperature [K]                                           307.542546
 MD_INI| Cell volume [bohr^3]                                 9.853827160554E+06
 MD_INI| Cell volume [ang^3]                                  1.460186515536E+06
 MD_INI| Cell lengths [bohr]      2.39870119E+02  2.39870119E+02  1.71258698E+02
 MD_INI| Cell lengths [ang]       1.26933800E+02  1.26933800E+02  9.06262000E+01
 MD_INI| Cell angles [deg]        9.00000000E+01  9.00000000E+01  9.00000000E+01

  Translating the system in order to center the QM fragment in the QM box.

 Number of electrons:                                                        654
 Number of occupied orbitals:                                                327
 Number of molecular orbitals:                                               327

 Number of orbital functions:                                               2313
 Number of independent orbital functions:                                   2313

 Extrapolation method: ASPC


 SCF WAVEFUNCTION OPTIMIZATION

  ----------------------------------- OT ---------------------------------------
  Minimizer      : DIIS                : direct inversion
                                         in the iterative subspace
                                         using   7 DIIS vectors
                                         safer DIIS on
  Preconditioner : FULL_ALL            : diagonalization, state selective
  Precond_solver : DEFAULT
  stepsize       :    0.15000000                  energy_gap     :    0.08000000
  eps_taylor     :   0.10000E-15                  max_taylor     :             4
  ----------------------------------- OT ---------------------------------------

  Step     Update method      Time    Convergence         Total energy    Change
  ------------------------------------------------------------------------------
  Decoupling Energy:                                               0.0654977899
  Recoupling Energy:                                              -0.0067751650

 *** WARNING in hfx_energy_potential.F:592 :: The Kohn Sham matrix is not  ***
 *** 100% occupied. This may result in incorrect Hartree-Fock results. Try ***
 *** to decrease EPS_PGF_ORB and EPS_FILTER_MATRIX in the QS section. For  ***
 *** more information see FAQ: https://www.cp2k.org/faq:hfx_eps_warning    ***

     1 OT DIIS     0.15E+00   10.4     0.00039341     -1096.7916980265 -1.10E+03
  Decoupling Energy:                                               0.0653301297
  Recoupling Energy:                                              -0.0067715231
     2 OT DIIS     0.15E+00    1.2     0.00021598     -1096.8028091283 -1.11E-02
  Decoupling Energy:                                               0.0655799298
  Recoupling Energy:                                              -0.0067741026
     3 OT DIIS     0.15E+00    1.2     0.00035740     -1096.8033039357 -4.95E-04
  Decoupling Energy:                                               0.0653764852
  Recoupling Energy:                                              -0.0067727351
     4 OT DIIS     0.15E+00    1.2     0.00011433     -1096.8053648813 -2.06E-03
  Decoupling Energy:                                               0.0653370463
  Recoupling Energy:                                              -0.0067710846
     5 OT DIIS     0.15E+00    1.2     0.00003630     -1096.8056470365 -2.82E-04
  Decoupling Energy:                                               0.0653622179
  Recoupling Energy:                                              -0.0067719019
     6 OT DIIS     0.15E+00    1.2     0.00002251     -1096.8056710487 -2.40E-05
  Decoupling Energy:                                               0.0653570149
  Recoupling Energy:                                              -0.0067717605
     7 OT DIIS     0.15E+00    1.2     0.00000833     -1096.8056819662 -1.09E-05
  Decoupling Energy:                                               0.0653435166
  Recoupling Energy:                                              -0.0067715343
     8 OT DIIS     0.15E+00    1.2     0.00000521     -1096.8056860115 -4.05E-06
  Decoupling Energy:                                               0.0653463767
  Recoupling Energy:                                              -0.0067717022
     9 OT DIIS     0.15E+00    1.2     0.00000484     -1096.8056876755 -1.66E-06
  Decoupling Energy:                                               0.0653376665
  Recoupling Energy:                                              -0.0067715744
    10 OT DIIS     0.15E+00    1.2     0.00000367     -1096.8056893840 -1.71E-06
  Decoupling Energy:                                               0.0653304000
  Recoupling Energy:                                              -0.0067715129
    11 OT DIIS     0.15E+00    1.2     0.00000341     -1096.8056914599 -2.08E-06
  Decoupling Energy:                                               0.0653234137
  Recoupling Energy:                                              -0.0067715029
    12 OT DIIS     0.15E+00    1.2     0.00000334     -1096.8056931409 -1.68E-06
  Decoupling Energy:                                               0.0653159638
  Recoupling Energy:                                              -0.0067714460
    13 OT DIIS     0.15E+00    1.2     0.00000317     -1096.8056949515 -1.81E-06
  Decoupling Energy:                                               0.0653053889
  Recoupling Energy:                                              -0.0067713832
    14 OT DIIS     0.15E+00    1.2     0.00000277     -1096.8056969620 -2.01E-06
  Decoupling Energy:                                               0.0652930184
  Recoupling Energy:                                              -0.0067713040
    15 OT DIIS     0.15E+00    1.2     0.00000250     -1096.8056989651 -2.00E-06
  Decoupling Energy:                                               0.0652804329
  Recoupling Energy:                                              -0.0067712343
    16 OT DIIS     0.15E+00    1.2     0.00000224     -1096.8057007370 -1.77E-06
  Decoupling Energy:                                               0.0652659196
  Recoupling Energy:                                              -0.0067711664
    17 OT DIIS     0.15E+00    1.2     0.00000188     -1096.8057025618 -1.82E-06
  Decoupling Energy:                                               0.0652556334
  Recoupling Energy:                                              -0.0067710616
    18 OT DIIS     0.15E+00    1.2     0.00000183     -1096.8057033999 -8.38E-07
  Decoupling Energy:                                               0.0652439491
  Recoupling Energy:                                              -0.0067710114
    19 OT DIIS     0.15E+00    1.2     0.00000155     -1096.8057044437 -1.04E-06
  Decoupling Energy:                                               0.0652342725
  Recoupling Energy:                                              -0.0067709542
    20 OT DIIS     0.15E+00    1.2     0.00000152     -1096.8057050735 -6.30E-07
  Decoupling Energy:                                               0.0652274787
  Recoupling Energy:                                              -0.0067708943
    21 OT DIIS     0.15E+00    1.2     0.00000140     -1096.8057055141 -4.41E-07
  Decoupling Energy:                                               0.0652205588
  Recoupling Energy:                                              -0.0067708486
    22 OT DIIS     0.15E+00    1.2     0.00000133     -1096.8057058828 -3.69E-07
  Decoupling Energy:                                               0.0652145566
  Recoupling Energy:                                              -0.0067708050
    23 OT DIIS     0.15E+00    1.2     0.00000119     -1096.8057061970 -3.14E-07
  Decoupling Energy:                                               0.0652084931
  Recoupling Energy:                                              -0.0067707610
    24 OT DIIS     0.15E+00    1.2     0.00000116     -1096.8057065141 -3.17E-07
  Decoupling Energy:                                               0.0652023933
  Recoupling Energy:                                              -0.0067707108
    25 OT DIIS     0.15E+00    1.2     0.00000108     -1096.8057068170 -3.03E-07
  Decoupling Energy:                                               0.0651961402
  Recoupling Energy:                                              -0.0067706552
    26 OT DIIS     0.15E+00    1.2     0.00000105     -1096.8057071345 -3.17E-07
  Decoupling Energy:                                               0.0651922341
  Recoupling Energy:                                              -0.0067706331
    27 OT DIIS     0.15E+00    1.2     0.00000101     -1096.8057073503 -2.16E-07
  Decoupling Energy:                                               0.0651865932
  Recoupling Energy:                                              -0.0067705841
    28 OT DIIS     0.15E+00    1.2     0.00000100     -1096.8057076299 -2.80E-07

  *** SCF run converged in    28 steps ***


  Electronic density on regular grids:       -654.0002714725       -0.0002714725
  Core density on regular grids:              654.9999999988       -0.0000000012
  Total charge density on r-space grids:        0.9997285263
  Total charge density g-space grids:           0.9997285263

  Overlap energy of the core charge distribution:               0.00004340930318
  Self energy of the core charge distribution:              -2459.11679630764229
  Core Hamiltonian energy:                                    757.53689445538635
  Hartree energy:                                            1000.61837559557011
  Exchange-correlation energy:                               -242.98563651928748
  Hartree-Fock Exchange energy:                               -54.32729775925831
  QM/MM Electrostatic energy:                                 -98.53129050398444

  Total energy:                                             -1096.80570762991283

  outer SCF iter =    1 RMS gradient =   0.10E-05 energy =      -1096.8057076299
  outer SCF loop converged in   1 iterations or   28 steps

  Decoupling Energy:                                               0.0651833402
  Recoupling Energy:                                              -0.0067705547

 ENERGY| Total FORCE_EVAL ( QMMM ) energy [a.u.]:          -1446.419720426896674

 MD| ***************************************************************************
 MD| Step number                                                               1
 MD| Time [fs]                                                          1.000000
 MD| Conserved quantity [hartree]                            -0.124771269465E+04
 MD| ---------------------------------------------------------------------------
 MD|                                          Instantaneous             Averages
 MD| CPU time per MD step [s]                    133.141031           133.141031
 MD| Energy drift per atom [K]           0.115263060206E+02   0.000000000000E+00
 MD| Potential energy [hartree]         -0.144641972043E+04  -0.144641972043E+04
 MD| Total kinetic energy [hartree]      0.198707025772E+03   0.198707025772E+03
 MD| QM kinetic energy [hartree]         0.372936161594E+00   0.372936161594E+00
 MD| Total temperature [K]                       277.166614           277.166614
 MD| QM temperature [K]                          310.313004           310.313004
 MD| ***************************************************************************

 -------------------------------------------------------------------------------
 -                                                                             -
 -                                DBCSR STATISTICS                             -
 -                                                                             -
 -------------------------------------------------------------------------------
 COUNTER                                    TOTAL       BLAS       SMM       ACC
 flops    18 x     7 x     7                 3528     100.0%      0.0%      0.0%
 flops     7 x     7 x     7               115248     100.0%      0.0%      0.0%
 flops    18 x    18 x     7               163296     100.0%      0.0%      0.0%
 flops    15 x     7 x     7               235200     100.0%      0.0%      0.0%
 flops     5 x     7 x     7               291060     100.0%      0.0%      0.0%
 flops    14 x     7 x     7               315560     100.0%      0.0%      0.0%
 flops    18 x     7 x    18               353808     100.0%      0.0%      0.0%
 flops    29 x     7 x     7               454720     100.0%      0.0%      0.0%
 flops    19 x     7 x     7               595840     100.0%      0.0%      0.0%
 flops    18 x    32 x    32               737280     100.0%      0.0%      0.0%
 flops    33 x     7 x     7              1552320     100.0%      0.0%      0.0%
 flops    52 x     7 x     7              2446080     100.0%      0.0%      0.0%
 flops     5 x     7 x   138              2627520     100.0%      0.0%      0.0%
 flops    24 x     7 x     7              3010560     100.0%      0.0%      0.0%
 flops     5 x    18 x     7              3084480     100.0%      0.0%      0.0%
 flops    18 x     5 x     7              3129840     100.0%      0.0%      0.0%
 flops     7 x     7 x   138              3516240     100.0%      0.0%      0.0%
 flops    15 x     7 x   138              3941280     100.0%      0.0%      0.0%
 flops     5 x     7 x   152              4341120     100.0%      0.0%      0.0%
 flops    32 x     7 x     7              5268480     100.0%      0.0%      0.0%
 flops     7 x     7 x    32              5268480     100.0%      0.0%      0.0%
 flops     7 x    32 x     7              5268480     100.0%      0.0%      0.0%
 flops     7 x     7 x   152              5809440     100.0%      0.0%      0.0%
 flops    15 x     7 x   152              6511680     100.0%      0.0%      0.0%
 flops    43 x     7 x     7              6742400     100.0%      0.0%      0.0%
 flops    18 x    14 x     7              7112448     100.0%      0.0%      0.0%
 flops     5 x     7 x    32              7168000     100.0%      0.0%      0.0%
 flops     5 x    32 x     7              7168000     100.0%      0.0%      0.0%
 flops    14 x    18 x     7              7366464     100.0%      0.0%      0.0%
 flops    18 x    18 x    32              7464960     100.0%      0.0%      0.0%
 flops    29 x     7 x   138              7619808     100.0%      0.0%      0.0%
 flops    19 x     7 x   138              9984576     100.0%      0.0%      0.0%
 flops    15 x     7 x    32             10752000     100.0%      0.0%      0.0%
 flops    15 x    32 x     7             10752000     100.0%      0.0%      0.0%
 flops     5 x     7 x   143             10890880     100.0%      0.0%      0.0%
 flops    38 x     7 x     7             11320960     100.0%      0.0%      0.0%
 flops    29 x     7 x   152             12589248     100.0%      0.0%      0.0%
 flops     5 x     7 x    18             13464360     100.0%      0.0%      0.0%
 flops    18 x     7 x     5             13464360     100.0%      0.0%      0.0%
 flops     7 x     7 x   143             14574560     100.0%      0.0%      0.0%
 flops    18 x    32 x    18             16174080     100.0%      0.0%      0.0%
 flops    15 x     7 x   143             16336320     100.0%      0.0%      0.0%
 flops    19 x     7 x   152             16496256     100.0%      0.0%      0.0%
 flops    29 x     7 x    32             20787200     100.0%      0.0%      0.0%
 flops    29 x    32 x     7             20787200     100.0%      0.0%      0.0%
 flops    33 x     7 x   138             26012448     100.0%      0.0%      0.0%
 flops    19 x    32 x     7             27238400     100.0%      0.0%      0.0%
 flops    19 x     7 x    32             27238400     100.0%      0.0%      0.0%
 flops    14 x     7 x    18             31370976     100.0%      0.0%      0.0%
 flops    18 x     7 x    14             31370976     100.0%      0.0%      0.0%
 flops    29 x     7 x   143             31583552     100.0%      0.0%      0.0%
 flops    52 x     7 x   138             40989312     100.0%      0.0%      0.0%
 flops    19 x     7 x   143             41385344     100.0%      0.0%      0.0%
 flops    33 x     7 x   152             42977088     100.0%      0.0%      0.0%
 flops    24 x     7 x   138             50448384     100.0%      0.0%      0.0%
 flops    14 x    32 x    32             65945600     100.0%      0.0%      0.0%
 flops    52 x     7 x   152             67721472     100.0%      0.0%      0.0%
 flops    33 x     7 x    32             70963200     100.0%      0.0%      0.0%
 flops    33 x    32 x     7             70963200     100.0%      0.0%      0.0%
 flops    24 x     7 x   152             83349504     100.0%      0.0%      0.0%
 flops    33 x     7 x   143            107819712     100.0%      0.0%      0.0%
 flops    52 x     7 x    32            111820800     100.0%      0.0%      0.0%
 flops    52 x    32 x     7            111820800     100.0%      0.0%      0.0%
 flops     5 x     5 x     7            111955200     100.0%      0.0%      0.0%
 flops    43 x     7 x   138            112983360     100.0%      0.0%      0.0%
 flops     5 x    32 x   138            120115200     100.0%      0.0%      0.0%
 flops    24 x     7 x    32            137625600     100.0%      0.0%      0.0%
 flops    24 x    32 x     7            137625600     100.0%      0.0%      0.0%
 flops     5 x    18 x    32            141004800     100.0%      0.0%      0.0%
 flops    18 x     5 x    32            143078400     100.0%      0.0%      0.0%
 flops    32 x     7 x   138            160742400     100.0%      0.0%      0.0%
 flops     7 x    32 x   138            160742400     100.0%      0.0%      0.0%
 flops    52 x     7 x   143            169897728     100.0%      0.0%      0.0%
 flops    15 x    32 x   138            180172800     100.0%      0.0%      0.0%
 flops    43 x     7 x   152            186668160     100.0%      0.0%      0.0%
 flops    38 x     7 x   138            189706944     100.0%      0.0%      0.0%
 flops     5 x    32 x   152            198451200     100.0%      0.0%      0.0%
 flops    24 x     7 x   143            209104896     100.0%      0.0%      0.0%
 flops    32 x    32 x     7            240844800     100.0%      0.0%      0.0%
 flops    32 x     7 x    32            240844800     100.0%      0.0%      0.0%
 flops     7 x    32 x    32            240844800     100.0%      0.0%      0.0%
 flops     5 x    14 x     7            250770240     100.0%      0.0%      0.0%
 flops    14 x     5 x     7            250834920     100.0%      0.0%      0.0%
 flops    32 x     7 x   152            265574400     100.0%      0.0%      0.0%
 flops     7 x    32 x   152            265574400     100.0%      0.0%      0.0%
 flops    15 x    32 x   152            297676800     100.0%      0.0%      0.0%
 flops    43 x    32 x     7            308224000     100.0%      0.0%      0.0%
 flops    43 x     7 x    32            308224000     100.0%      0.0%      0.0%
 flops    38 x     7 x   152            313428864     100.0%      0.0%      0.0%
 flops    18 x    14 x    32            325140480     100.0%      0.0%      0.0%
 flops    14 x    18 x    32            336752640     100.0%      0.0%      0.0%
 flops    29 x    32 x   138            348334080     100.0%      0.0%      0.0%
 flops     5 x    32 x    32            355737600     100.0%      0.0%      0.0%
 flops    19 x    32 x   138            456437760     100.0%      0.0%      0.0%
 flops    43 x     7 x   143            468307840     100.0%      0.0%      0.0%
 flops     5 x     7 x     5            481393500     100.0%      0.0%      0.0%
 flops    15 x    32 x    32            491520000     100.0%      0.0%      0.0%
 flops     5 x    32 x   143            497868800     100.0%      0.0%      0.0%
 flops    38 x    32 x     7            517529600     100.0%      0.0%      0.0%
 flops    38 x     7 x    32            517529600     100.0%      0.0%      0.0%
 flops    14 x    14 x     7            572370960     100.0%      0.0%      0.0%
 flops    29 x    32 x   152            575508480     100.0%      0.0%      0.0%
 flops     5 x    32 x    18            615513600     100.0%      0.0%      0.0%
 flops    18 x    32 x     5            615513600     100.0%      0.0%      0.0%
 flops    32 x     7 x   143            666265600     100.0%      0.0%      0.0%
 flops     7 x    32 x   143            666265600     100.0%      0.0%      0.0%
 flops    15 x    32 x   143            746803200     100.0%      0.0%      0.0%
 flops    19 x    32 x   152            754114560     100.0%      0.0%      0.0%
 flops    38 x     7 x   143            786321536     100.0%      0.0%      0.0%
 flops    29 x    32 x    32            950272000     100.0%      0.0%      0.0%
 flops    14 x     7 x     5           1086809220     100.0%      0.0%      0.0%
 flops     5 x     7 x    14           1086809220     100.0%      0.0%      0.0%
 flops    33 x    32 x   138           1189140480     100.0%      0.0%      0.0%
 flops    19 x    32 x    32           1245184000     100.0%      0.0%      0.0%
 flops    14 x    32 x    18           1434101760     100.0%      0.0%      0.0%
 flops    18 x    32 x    14           1434101760     100.0%      0.0%      0.0%
 flops    29 x    32 x   143           1443819520     100.0%      0.0%      0.0%
 flops    52 x    32 x   138           1873797120     100.0%      0.0%      0.0%
 flops    19 x    32 x   143           1891901440     100.0%      0.0%      0.0%
 flops    33 x    32 x   152           1964666880     100.0%      0.0%      0.0%
 flops    24 x    32 x   138           2306211840     100.0%      0.0%      0.0%
 flops    14 x     7 x    14           2455671456     100.0%      0.0%      0.0%
 flops    52 x    32 x   152           3095838720     100.0%      0.0%      0.0%
 flops    33 x    32 x    32           3244032000     100.0%      0.0%      0.0%
 flops    24 x    32 x   152           3810263040     100.0%      0.0%      0.0%
 flops    33 x    32 x   143           4928901120     100.0%      0.0%      0.0%
 flops    52 x    32 x    32           5111808000     100.0%      0.0%      0.0%
 flops     5 x     5 x    32           5117952000     100.0%      0.0%      0.0%
 flops    43 x    32 x   138           5164953600     100.0%      0.0%      0.0%
 flops    24 x    32 x    32           6291456000     100.0%      0.0%      0.0%
 flops    32 x    32 x   138           7348224000     100.0%      0.0%      0.0%
 flops    52 x    32 x   143           7766753280     100.0%      0.0%      0.0%
 flops    43 x    32 x   152           8533401600     100.0%      0.0%      0.0%
 flops    38 x    32 x   138           8672317440     100.0%      0.0%      0.0%
 flops    24 x    32 x   143           9559080960     100.0%      0.0%      0.0%
 flops    32 x    32 x    32          11010048000     100.0%      0.0%      0.0%
 flops     5 x    14 x    32          11463782400     100.0%      0.0%      0.0%
 flops    14 x     5 x    32          11466739200     100.0%      0.0%      0.0%
 flops    32 x    32 x   152          12140544000     100.0%      0.0%      0.0%
 flops    43 x    32 x    32          14090240000     100.0%      0.0%      0.0%
 flops    38 x    32 x   152          14328176640     100.0%      0.0%      0.0%
 flops    43 x    32 x   143          21408358400     100.0%      0.0%      0.0%
 flops     5 x    32 x     5          22006560000     100.0%      0.0%      0.0%
 flops    38 x    32 x    32          23658496000     100.0%      0.0%      0.0%
 flops    14 x    14 x    32          26165529600     100.0%      0.0%      0.0%
 flops    32 x    32 x   143          30457856000     100.0%      0.0%      0.0%
 flops    38 x    32 x   143          35946127360     100.0%      0.0%      0.0%
 flops    14 x    32 x     5          49682707200     100.0%      0.0%      0.0%
 flops     5 x    32 x    14          49682707200     100.0%      0.0%      0.0%
 flops    14 x    32 x    14         112259266560     100.0%      0.0%      0.0%
 flops inhomo. stacks                182851650720     100.0%      0.0%      0.0%
 flops total                       745.113280E+09     100.0%      0.0%      0.0%
 flops max/rank                      9.428203E+09     100.0%      0.0%      0.0%
 matmuls inhomo. stacks                    627066     100.0%      0.0%      0.0%
 matmuls total                           63831988     100.0%      0.0%      0.0%
 number of processed stacks               7646892     100.0%      0.0%      0.0%
 average stack size                                     8.3       0.0       0.0
 marketing flops                   793.975063E+09
 -------------------------------------------------------------------------------
 # multiplications                            644
 max memory usage/rank               3.768787E+09
 # max total images/rank                        2
 # max 3D layers                                1
 # MPI messages exchanged                 2390528
 MPI messages size (bytes):
  total size                       135.339131E+09
  min size                           0.000000E+00
  max size                         368.160000E+03
  average size                      56.614742E+03
 MPI breakdown and total messages size (bytes):
             size <=      128              715134                        0
       128 < size <=     8192              447902               3231873008
      8192 < size <=    32768              110532               1556627184
     32768 < size <=   131072              836640              42317352720
    131072 < size <=  4194304              280320              88233243120
   4194304 < size <= 16777216                   0                        0
  16777216 < size                               0                        0
 -------------------------------------------------------------------------------

 *** WARNING in dbcsr_mm.F:294 :: Using a non-square number of MPI ranks ***
 *** might lead to poor performance. Used ranks: 128 Suggested: 121 256  ***

 -------------------------------------------------------------------------------
 -                                                                             -
 -                      DBCSR MESSAGE PASSING PERFORMANCE                      -
 -                                                                             -
 -------------------------------------------------------------------------------
 ROUTINE             CALLS      AVE VOLUME [Bytes]
 MP_Bcast              151                     12.
 MP_Allreduce         3796                      9.
 MP_Alltoall          2245                  28863.
 MP_ISend            40544                  30339.
 MP_IRecv            40544                  29754.
 -------------------------------------------------------------------------------

 -------------------------------------------------------------------------------
 -                                                                             -
 -                                GRID STATISTICS                              -
 -                                                                             -
 -------------------------------------------------------------------------------
 LP    KERNEL             BACKEND                              COUNT     PERCENT
 1     collocate ortho    REF                                2605982      21.28%
 1     integrate ortho    REF                                2557491      20.88%
 0     collocate ortho    REF                                1781887      14.55%
 0     integrate ortho    REF                                1677068      13.69%
 2     integrate ortho    REF                                1406210      11.48%
 2     collocate ortho    REF                                1331201      10.87%
 3     integrate ortho    REF                                 372745       3.04%
 3     collocate ortho    REF                                 312849       2.55%
 0     collocate general  REF                                  64768       0.53%
 1     integrate general  REF                                  64768       0.53%
 4     integrate ortho    REF                                  43397       0.35%
 4     collocate ortho    REF                                  26554       0.22%
 5     integrate ortho    REF                                   1562       0.01%
 -------------------------------------------------------------------------------

 MEMORY| Estimated peak process memory [MiB]                                3655

 -------------------------------------------------------------------------------
 -                                                                             -
 -                         MESSAGE PASSING PERFORMANCE                         -
 -                                                                             -
 -------------------------------------------------------------------------------

 ROUTINE             CALLS      AVE VOLUME [Bytes]
 MP_Group                8
 MP_Bcast             8878               10200510.
 MP_Allreduce         1979                  21019.
 MP_Sync               207
 MP_Alltoall           712                6492149.
 MP_SendRecv           576                 103672.
 MP_ISendRecv        27178                  76168.
 MP_Wait             33528
 MP_comm_split           6
 MP_ISend             5738                 197931.
 MP_IRecv             5688                 199424.
 MP_Recv                45                 388584.
 -------------------------------------------------------------------------------


 -------------------------------------------------------------------------------
 -                                                                             -
 -                           R E F E R E N C E S                               -
 -                                                                             -
 -------------------------------------------------------------------------------
 
 CP2K version 8.2, the CP2K developers group (2021).
 CP2K is freely available from https://www.cp2k.org/ .

 Kuehne,Thomas D.; Iannuzzi,Marcella; Del Ben,Mauro;
 Rybkin,Vladimir V.; Seewald,Patrick; Stein,Frederick; Laino,Teodoro;
 Khaliullin,Rustam Z.; Schuett,Ole; Schiffmann,Florian; Golze,Dorothea;
 Wilhelm,Jan; Chulkov,Sergey; Bani-Hashemian,Mohammad Hossein;
 Weber,Valery; Borstnik,Urban; Taillefumier,Mathieu;
 Jakobovits,Alice Shoshana; Lazzaro,Alfio; Pabst,Hans; Mueller,Tiziano;
 Schade,Robert; Guidon,Manuel; Andermatt,Samuel; Holmberg,Nico;
 Schenter,Gregory K.; Hehn,Anna; Bussy,Augustin; Belleflamme,Fabian;
 Tabacchi,Gloria; Gloess,Andreas; Lass,Michael; Bethune,Iain;
 Mundy,Christopher J.; Plessl,Christian; Watkins,Matt;
 VandeVondele,Joost; Krack,Matthias; Hutter,Juerg. 
 The Journal of Chemical Physics, 152 (19), (2020). 
 CP2K: An electronic structure and molecular dynamics software package -
 Quickstep: Efficient and accurate electronic structure calculations.
 https://doi.org/10.1063/5.0007045

 Schuett, Ole; Messmer, Peter; Hutter, Juerg; VandeVondele, Joost. 
 Electronic Structure Calculations on Graphics Processing Units, John
 Wiley & Sons, Ltd, 173-190 (2016). 
 GPU-Accelerated Sparse Matrix-Matrix Multiplication for
 Linear Scaling Density Functional Theory.
 https://doi.org/10.1002/9781118670712.ch8

 Borstnik, U; VandeVondele, J; Weber, V; Hutter, J. 
 PARALLEL COMPUTING, 40 (5-6), 47-58 (2014). 
 Sparse matrix multiplication: The distributed block-compressed sparse
 row library.
 https://doi.org/10.1016/j.parco.2014.03.012

 Hutter, J; Iannuzzi, M; Schiffmann, F; VandeVondele, J. 
 WIREs Comput Mol Sci., 4 (1), 15-25 (2014). 
 CP2K: atomistic simulations of condensed matter systems.
 https://doi.org/10.1002/wcms.1159

 Marek, A; Blum, V; Johanni, R; Havu, V; Lang, B; Auckenthaler, T;
 Heinecke, A; Bungartz, H; Lederer, H. 
 Journal of Physics: Condensed Matter, 26 (21), (2014). 
 The ELPA library: scalable parallel eigenvalue solutions for
 electronic structure
 theory and computational science.
 https://doi.org/10.1088/0953-8984/26/21/213201

 Guidon, M; Hutter, J; VandeVondele, J. 
 JOURNAL OF CHEMICAL THEORY AND COMPUTATION, 5 (11), 3010-3021 (2009). 
 Robust Periodic Hartree-Fock Exchange for Large-Scale Simulations Using
 Gaussian Basis Sets.
 https://doi.org/10.1021/ct900494g

 Guidon, M; Schiffmann, F; Hutter, J; VandeVondele, J. 
 JOURNAL OF CHEMICAL PHYSICS, 128 (21), 214104 (2008). 
 Ab initio molecular dynamics using hybrid density functionals.
 https://doi.org/10.1063/1.2931945

 Kuhne, TD; Krack, M; Mohamed, FR; Parrinello, M. 
 PHYSICAL REVIEW LETTERS, 98 (6), 066401 (2007). 
 Efficient and accurate Car-Parrinello-like approach to
 Born-Oppenheimer molecular dynamics.
 https://doi.org/10.1103/PhysRevLett.98.066401

 Laino, T; Mohamed, F; Laio, A; Parrinello, M. 
 JOURNAL OF CHEMICAL THEORY AND COMPUTATION, 2 (5), 1370-1378 (2006). 
 An efficient linear-scaling electrostatic coupling for treating
 periodic boundary conditions in QM/MM simulations.
 https://doi.org/10.1021/ct6001169

 Laino, T; Mohamed, F; Laio, A; Parrinello, M. 
 JOURNAL OF CHEMICAL THEORY AND COMPUTATION, 1 (6), 1176-1184 (2005). 
 An efficient real space multigrid QM/MM electrostatic coupling.
 https://doi.org/10.1021/ct050123f

 Krack, M. 
 THEORETICAL CHEMISTRY ACCOUNTS, 114 (1-3), 145-152 (2005). 
 Pseudopotentials for H to Kr optimized for gradient-corrected
 exchange-correlation functionals.
 https://doi.org/10.1007/s00214-005-0655-y

 VandeVondele, J; Krack, M; Mohamed, F; Parrinello, M; Chassaing, T;
 Hutter, J. COMPUTER PHYSICS COMMUNICATIONS, 167 (2), 103-128 (2005). 
 QUICKSTEP: Fast and accurate density functional calculations using a
 mixed Gaussian and plane waves approach.
 https://doi.org/10.1016/j.cpc.2004.12.014

 Frigo, M; Johnson, SG. 
 PROCEEDINGS OF THE IEEE, 93 (2), 216-231 (2005). 
 The design and implementation of FFTW3.
 https://doi.org/10.1109/JPROC.2004.840301

 Kolafa, J. 
 JOURNAL OF COMPUTATIONAL CHEMISTRY, 25 (3), 335-342 (2004). 
 Time-reversible always stable predictor-corrector method for molecular dynamics of polarizable molecules.
 https://doi.org/10.1002/jcc.10385

 VandeVondele, J; Hutter, J. 
 JOURNAL OF CHEMICAL PHYSICS, 118 (10), 4365-4369 (2003). 
 An efficient orbital transformation method for electronic structure
 calculations.
 https://doi.org/10.1063/1.1543154

 Hartwigsen, C; Goedecker, S; Hutter, J. 
 PHYSICAL REVIEW B, 58 (7), 3641-3662 (1998). 
 Relativistic separable dual-space Gaussian pseudopotentials from H to Rn.
 https://doi.org/10.1103/PhysRevB.58.3641

 Lippert, G; Hutter, J; Parrinello, M. 
 MOLECULAR PHYSICS, 92 (3), 477-487 (1997). 
 A hybrid Gaussian and plane wave density functional scheme.
 https://doi.org/10.1080/002689797170220

 Goedecker, S; Teter, M; Hutter, J. 
 PHYSICAL REVIEW B, 54 (3), 1703-1710 (1996). 
 Separable dual-space Gaussian pseudopotentials.
 https://doi.org/10.1103/PhysRevB.54.1703

 ESSMANN, U; PERERA, L; BERKOWITZ, ML; DARDEN, T; LEE, H; PEDERSEN, LG. 
 JOURNAL OF CHEMICAL PHYSICS, 103 (19), 8577-8593 (1995). 
 A SMOOTH PARTICLE MESH EWALD METHOD.
 https://doi.org/10.1063/1.470117

 BLOCHL, PE. 
 JOURNAL OF CHEMICAL PHYSICS, 103 (17), 7422-7428 (1995). 
 ELECTROSTATIC DECOUPLING OF PERIODIC IMAGES OF PLANE-WAVE-EXPANDED
 DENSITIES AND DERIVED ATOMIC POINT CHARGES.
 https://doi.org/10.1063/1.470314

 BECKE, AD. PHYSICAL REVIEW A, 38 (6), 3098-3100 (1988). 
 DENSITY-FUNCTIONAL EXCHANGE-ENERGY APPROXIMATION WITH CORRECT
 ASYMPTOTIC-BEHAVIOR.
 https://doi.org/10.1103/PhysRevA.38.3098

 LEE, CT; YANG, WT; PARR, RG. 
 PHYSICAL REVIEW B, 37 (2), 785-789 (1988). 
 DEVELOPMENT OF THE COLLE-SALVETTI CORRELATION-ENERGY FORMULA INTO A
 FUNCTIONAL OF THE ELECTRON-DENSITY.
 https://doi.org/10.1103/PhysRevB.37.785

 VOSKO, SH; WILK, L; NUSAIR, M. 
 CANADIAN JOURNAL OF PHYSICS, 58 (8), 1200-1211 (1980). 
 ACCURATE SPIN-DEPENDENT ELECTRON LIQUID CORRELATION ENERGIES FOR LOCAL
 SPIN-DENSITY CALCULATIONS - A CRITICAL ANALYSIS.
 https://doi.org/10.1139/p80-159


 -------------------------------------------------------------------------------
 -                                                                             -
 -                                T I M I N G                                  -
 -                                                                             -
 -------------------------------------------------------------------------------
 SUBROUTINE                       CALLS  ASD         SELF TIME        TOTAL TIME
                                MAXIMUM       AVERAGE  MAXIMUM  AVERAGE  MAXIMUM
 CP2K                                 1  1.0    0.344    0.380  197.525  197.544
 qs_mol_dyn_low                       1  2.0    0.005    0.006  133.919  135.422
 velocity_verlet                      1  3.0    0.002    0.002   77.389   77.393
 qs_forces                            2  3.5    0.001    0.001   70.308   70.308
 rebuild_ks_matrix                   34  8.7    0.000    0.000   64.510   64.520
 qs_ks_build_kohn_sham_matrix        34  9.7    0.005    0.005   64.510   64.520
 qs_energies                          2  4.5    0.000    0.001   63.758   63.758
 scf_env_do_scf                       2  5.5    0.000    0.000   62.702   62.703
 qmmm_env_create                      1  2.0    6.010    6.139   61.639   61.651
 hfx_ks_matrix                       34 10.7    0.001    0.002   60.710   60.724
 qs_ks_update_qs_env                 34  7.9    0.000    0.000   57.991   58.001
 integrate_four_center               34 11.7    1.640    2.091   56.601   56.615
 fist_init                            1  3.0    0.001    0.001   53.834   53.846
 integrate_four_center_main          34 12.7    0.121    0.209   48.496   49.715
 integrate_four_center_bin         2201 13.7   48.375   49.600   48.375   49.600
 qmmm_el_coupling                     2  3.5    0.000    0.000   46.542   46.578
 qmmm_elec_with_gaussian              2  4.5    0.000    0.001   46.541   46.577
 qmmm_elec_with_gaussian_low          2  5.5    0.000    0.000   13.935   45.965
 mp_sync                            207 13.2   33.635   42.113   33.635   42.113
 qmmm_elec_gaussian_low_G             2  6.5   11.835   40.847   11.835   40.847
 scf_env_do_scf_inner_loop           32  6.9    0.001    0.002   37.613   37.626
 force_field_control                  1  4.0    0.000    0.001   31.533   32.399
 rdparm_amber_8                       2  6.5   23.138   23.649   30.007   30.278
 init_scf_loop                        2  6.5    0.000    0.001   25.075   25.075
 topology_control                     1  4.0    0.001    0.001   21.360   21.478
 force_field_pack                     1  5.0    0.007    0.008   17.353   18.242
 connectivity_control                 2  4.0    0.000    0.000   16.489   16.516
 read_connectivity_amber              1  6.0    0.000    0.000   15.896   15.901
 read_force_field_amber               1  5.0    0.006    0.006   14.116   14.387
 qmmm_forces                          2  3.5    0.004    0.005   13.639   13.640
 qmmm_forces_with_gaussian            2  4.5    0.001    0.001    4.223   13.614
 qmmm_force_with_gaussian_low         2  5.5    0.000    0.000    3.888   13.279
 force_field_pack_ub                  1  6.0   10.975   11.955   10.975   11.955
 mp_sum_dm                          258  4.8    9.828   11.872    9.828   11.872
 qmmm_elec_gaussian_low_R             2  6.5    0.000    0.000    2.100    9.395
 qmmm_elec_with_gaussian_LG           2  7.5    2.100    9.395    2.100    9.395
 qmmm_forces_gaussian_low_R           2  6.5    0.000    0.000    1.983    7.999
 qmmm_forces_with_gaussian_LG         2  7.5    1.983    7.999    1.983    7.999
 parser_read_line               1186304  7.6    0.202    0.231    5.873    6.527
 qs_ks_update_qs_env_forces           2  4.5    0.000    0.000    6.523    6.524
 parser_read_line_low              1198  8.5    0.082    3.676    5.671    6.320
 broadcast_input_information       1198  9.5    0.003    0.003    5.589    6.264
 qmmm_forces_gaussian_low_G           2  6.5    1.905    5.280    1.905    5.280
 mp_bcast_i                        4818 10.5    4.368    5.097    4.368    5.097
 derivatives_four_center              2  8.5    0.009    0.250    4.103    4.104
 pw_transfer                        702 12.3    0.035    0.041    3.493    3.685
 fft_wrap_pw1pw2                    590 13.4    0.004    0.005    3.444    3.639
 derivatives_four_center_main         2  9.5    0.026    0.470    3.558    3.559
 force_field_pack_splines             2  6.0    0.010    0.010    3.331    3.445
 fft3d_ps                           590 15.4    0.454    0.544    3.154    3.371
 get_nonbond_storage                  2  7.0    0.142    0.146    3.144    3.256
 topology_coordinate_pack             2  4.0    0.000    0.001    3.046    3.131
 set_potparm_index                  508  8.0    0.208    0.212    3.002    3.111
 derivatives_four_center_bin        559 10.5    2.940    3.072    2.940    3.072
 topology_coordinate_pack_11          2  5.0    2.894    2.978    2.894    2.978
 init_genpot                        510  9.0    2.804    2.913    2.804    2.913
 mp_alltoall_z22v                   590 17.4    2.573    2.819    2.573    2.819
 yz_to_x                            276 15.8    0.053    0.068    2.145    2.360
 fft_wrap_pw1pw2_150                378 14.6    0.107    0.149    2.198    2.307
 qs_rho_update_rho                   34  7.9    0.000    0.000    2.293    2.295
 calculate_rho_elec                  34  8.9    0.023    0.032    2.293    2.295
 md_output                            1  3.0    0.000    0.000    0.682    2.185
 powell_optimize                1331636 13.0    2.007    2.083    2.007    2.083
 fist_calc_energy_force               2  3.5    0.011    0.012    1.976    2.005
 rs_pw_transfer                     284 12.0    0.003    0.004    1.682    1.902
 write_restart                        1  4.0    0.009    1.151    0.679    1.813
 coordinate_control                   1  5.0    0.001    0.001    1.759    1.771
 coordinate_control_READ_COORDI       1  6.0    0.000    0.000    1.758    1.770
 read_coordinate_pdb                  1  7.0    1.224    1.254    1.758    1.770
 calc_screening_functions             1 12.0    0.423    0.428    1.503    1.543
 mp_max_l                            26  3.5    1.501    1.537    1.501    1.537
 eval_pw_TabLR                        3  3.0    0.384    1.460    1.518    1.519
 mp_bcast_am                       1198 10.5    1.065    1.483    1.193    1.493
 qs_vxc_create                       34 10.7    0.001    0.001    1.492    1.492
 xc_vxc_pw_create                    34 11.7    0.043    0.057    1.491    1.492
 dbcsr_multiply_generic             644 12.9    0.020    0.023    1.447    1.467
 mp_comm_dup                         21  5.0    1.022    1.435    1.022    1.435
 spme_evaluate                        2  4.5    0.027    0.028    1.424    1.425
 mp_waitall_1                     99966 16.2    1.077    1.421    1.077    1.421
 rdparm_amber_8_forcefield            1  7.0    0.040    0.041    1.371    1.400
 qs_scf_new_mos                      32  7.9    0.000    0.000    1.363    1.373
 qs_scf_loop_do_ot                   32  8.9    0.000    0.000    1.363    1.373
 density_rs2pw                       34  9.9    0.001    0.001    1.172    1.367
 fist_init_subsys                     1  4.0    0.000    0.002    0.940    1.340
 calc_pair_dist_radii                 1 12.0    0.372    0.381    1.299    1.339
 ewald_pw_init                        1  5.0    0.000    0.000    0.931    1.331
 ot_scf_mini                         32  9.9    0.001    0.001    1.295    1.304
 sum_up_and_integrate                34 10.7    0.009    0.013    1.292    1.299
 integrate_v_rspace                  34 11.7    0.001    0.002    1.283    1.290
 grid_collocate_task_list            34  9.9    1.036    1.287    1.036    1.287
 fft_wrap_pw1pw2_10                 144 13.9    0.002    0.003    1.179    1.280
 post_process_torsions_info           2  8.0    1.159    1.188    1.159    1.188
 prepare_preconditioner               2  7.5    0.000    0.000    1.150    1.151
 mp_sum_dm3                           3  4.0    1.076    1.087    1.076    1.087
 make_preconditioner                  2  8.5    0.000    0.000    1.060    1.060
 hfx_load_balance                     2 11.5    0.002    0.003    0.995    1.026
 mp_waitany                        5688 13.9    0.739    1.017    0.739    1.017
 make_full_all                        2  9.5    0.001    0.001    1.010    1.010
 ot_mini                             32 10.9    0.000    0.000    0.958    0.970
 potential_pw2rs                     34 12.7    0.002    0.002    0.915    0.924
 multiply_cannon                    644 13.9    0.035    0.038    0.836    0.889
 integrate_four_center_load          34 12.7    0.000    0.001    0.821    0.853
 mp_bcast_im                        363  9.5    0.783    0.795    0.783    0.795
 force_field_unique_tors              1  6.0    0.775    0.794    0.775    0.794
 xc_rho_set_and_dset_create          34 12.7    0.041    0.060    0.669    0.783
 multiply_cannon_loop               644 14.9    0.056    0.059    0.708    0.763
 mp_sum_d                          2060  8.5    0.505    0.761    0.505    0.761
 md_write_output                      2  3.5    0.000    0.008    0.006    0.741
 pw_integral_ab                     986  7.2    0.195    0.223    0.548    0.740
 write_trajectory                     8  4.5    0.000    0.003    0.006    0.733
 write_particle_coordinates           2  5.5    0.006    0.730    0.006    0.730
 cp_fm_diag_elpa                      6 10.8    0.000    0.000    0.719    0.720
 qs_energies_init_hamiltonians        2  5.5    0.000    0.000    0.717    0.717
 cp_fm_redistribute_end               6 11.8    0.512    0.712    0.513    0.712
 cp_fm_diag_elpa_base                 6 11.6    0.196    0.698    0.198    0.705
 qs_env_update_s_mstruct              2  6.5    0.000    0.000    0.693    0.700
 update_input                         1  5.0    0.000    0.000    0.670    0.697
 update_subsys                        1  6.0    0.000    0.000    0.669    0.697
 mp_sum_lv                          161  2.4    0.596    0.696    0.596    0.696
 qs_ks_ddapc                         34 10.7    0.001    0.001    0.683    0.694
 rs_pw_transfer_RS2PW_150            36 11.8    0.146    0.167    0.499    0.679
 section_coord_val_set                1  7.0    0.646    0.674    0.646    0.674
 qmmm_elec_with_gaussian:spline       2  5.5    0.000    0.000    0.578    0.610
 pw_prolongate_s3                     6  6.5    0.070    0.088    0.578    0.610
 qs_ot_get_derivative                32 11.9    0.000    0.000    0.599    0.608
 x_to_yz                            314 16.8    0.065    0.089    0.547    0.571
 multiply_cannon_metrocomm3       10304 15.9    0.016    0.016    0.270    0.570
 mp_alltoall_d11v                   517 13.6    0.382    0.548    0.382    0.548
 connectivity_control_check_ele       2  5.0    0.509    0.536    0.509    0.536
 cp_ddapc_apply_CD                   34 11.7    0.001    0.030    0.525    0.525
 mp_sum_l                          3338 13.1    0.347    0.497    0.347    0.497
 force_field_pack_bend                1  6.0    0.466    0.486    0.466    0.486
 integrate_four_center_getP          34 12.7    0.114    0.132    0.456    0.457
 hfx_load_balance_count               2 12.5    0.393    0.444    0.393    0.444
 hfx_load_balance_bin                 2 12.5    0.387    0.431    0.387    0.431
 calculate_rho_core                   2  7.5    0.005    0.006    0.415    0.430
 init_cube_info                       8  5.5    0.282    0.429    0.282    0.429
 qs_ks_qmmm_create                    1  3.0    0.000    0.000    0.281    0.428
 multiply_cannon_multrec          10304 15.9    0.218    0.416    0.220    0.417
 rs_pw_transfer_RS2PW_10             70 11.7    0.032    0.034    0.364    0.417
 integrate_four_center_dist_KS       34 12.7    0.065    0.073    0.393    0.393
 qs_ot_get_derivative_taylor         32 12.9    0.001    0.001    0.383    0.393
 update_particle_set                  2  4.0    0.003    0.004    0.375    0.378
 make_m2s                          1288 13.9    0.014    0.015    0.355    0.373
 rs_pw_transfer_PW2RS_150            36 14.4    0.124    0.186    0.296    0.368
 rs_gather_matrices                  34 12.7    0.004    0.005    0.280    0.358
 ot_diis_step                        32 11.9    0.004    0.004    0.355    0.355
 force_field_unique_ub                1  6.0    0.340    0.349    0.340    0.349
 add_coarse2fine                      6  7.5    0.123    0.158    0.289    0.349
 force_field_unique_bend              1  6.0    0.331    0.340    0.331    0.340
 apply_preconditioner_dbcsr          34 12.9    0.000    0.000    0.321    0.335
 apply_all                           34 13.9    0.001    0.001    0.321    0.335
 pw_restrict_s3                       6  5.5    0.092    0.111    0.334    0.334
 mp_isendrecv_dv                  26162 14.0    0.118    0.331    0.118    0.331
 grid_integrate_task_list            34 12.7    0.084    0.329    0.084    0.329
 init_scf_run                         2  5.5    0.000    0.000    0.321    0.321
 scf_env_initial_rho_setup            2  6.5    0.000    0.000    0.320    0.321
 force_field_pack_nonbond14           1  6.0    0.303    0.313    0.303    0.313
 force_field_pack_bond                1  6.0    0.258    0.307    0.258    0.307
 make_images                       1288 14.9    0.052    0.060    0.266    0.295
 force_field_pack_nonbond             1  6.0    0.278    0.291    0.278    0.291
 list_control                         2  4.5    0.013    0.014    0.262    0.281
 cp_ddapc_init                        2  7.5    0.000    0.000    0.255    0.257
 cp_ddapc_create                      2  8.5    0.002    0.002    0.254    0.257
 ddapc_eval_AmI                       2  9.5    0.064    0.071    0.233    0.240
 mp_isend_dv                      25742 16.4    0.136    0.240    0.136    0.240
 build_fist_neighbor_lists            1  5.0    0.000    0.000    0.232    0.239
 cp_fm_cholesky_reduce                2 10.5    0.237    0.238    0.237    0.238
 get_ddapc                           34 12.7    0.001    0.001    0.227    0.235
 rs_pw_transfer_PW2RS_40             34 14.7    0.040    0.046    0.201    0.225
 xc_functional_eval                 136 13.7    0.001    0.001    0.136    0.224
 mp_irecv_dv                      25584 16.4    0.085    0.223    0.085    0.223
 multiply_cannon_metrocomm4        9660 15.9    0.015    0.016    0.103    0.223
 modify_hartree_pot                  34 12.7    0.196    0.221    0.196    0.221
 spline_nonbond_control               2  7.0    0.167    0.206    0.177    0.217
 build_neighbor_lists                 1  6.0    0.209    0.215    0.209    0.215
 derivatives_four_center_load         2  9.5    0.000    0.001    0.212    0.213
 add_coarse2fine_comm                 6  8.5    0.001    0.002    0.165    0.211
 mp_alltoall_i                       12  9.0    0.156    0.210    0.156    0.210
 rs_pw_transfer_PW2RS_10             74 14.0    0.069    0.075    0.187    0.208
 pw_poisson_solve                    36 10.4    0.026    0.029    0.147    0.200
 rdparm_amber_8_connectivity          1  8.0    0.139    0.141    0.193    0.196
 force_nonbond                        2  4.5    0.159    0.187    0.159    0.187
 mp_bcast_iv                       2547 10.5    0.155    0.181    0.155    0.181
 force_field_pack_tors                1  6.0    0.157    0.161    0.157    0.161
 hfx_load_balance_dist                2 12.5    0.001    0.001    0.096    0.158
 rs_pw_transfer_RS2PW_40             34 11.9    0.039    0.047    0.130    0.157
 build_A_matrix                       2 10.5    0.134    0.157    0.134    0.157
 make_images_sizes                 1288 15.9    0.001    0.001    0.107    0.154
 mp_alltoall_i44                   1288 16.9    0.106    0.154    0.106    0.154
 calculate_first_density_matrix       1  7.0    0.000    0.001    0.152    0.152
 add_fine2coarse                      6  6.5    0.103    0.139    0.149    0.150
 qs_ot_get_p                         34 10.7    0.000    0.000    0.131    0.142
 subspace_eigenvalues_ks_dbcsr        4  9.0    0.000    0.000    0.134    0.135
 mp_sendrecv_dm2                    872  6.9    0.062    0.131    0.062    0.131
 get_ddapc-charges                   34 13.7    0.020    0.020    0.127    0.128
 hfx_load_balance_range               1 14.0    0.000    0.001    0.080    0.111
 vwn_lda_eval                        34 14.7    0.063    0.110    0.063    0.110
 build_b_vector                      34 14.7    0.091    0.105    0.091    0.105
 qs_ot_get_orbitals                  32 10.9    0.000    0.000    0.102    0.104
 get_ddapc-forces                     2 10.5    0.049    0.052    0.095    0.103
 cp_dbcsr_syevd                       4 10.0    0.000    0.001    0.102    0.102
 mp_isend_dm3                      1024 13.9    0.040    0.100    0.040    0.100
 make_basis_sm                        2  9.0    0.000    0.000    0.095    0.095
 pw_gather_p                        276 14.8    0.087    0.092    0.087    0.092
 pw_scatter_p                       314 15.8    0.087    0.092    0.087    0.092
 post_process_bends_info              2  8.0    0.082    0.084    0.082    0.084
 mp_allgather_i34                   644 14.9    0.055    0.083    0.055    0.083
 wfi_extrapolate                      2  7.5    0.000    0.000    0.083    0.083
 force_field_unique_bond              1  6.0    0.079    0.081    0.079    0.081
 qs_init_subsys                       1  3.0    0.002    0.002    0.079    0.080
 dbcsr_make_images_dense           1124 15.2    0.008    0.009    0.060    0.079
 make_images_data                  1288 15.9    0.009    0.010    0.066    0.079
 calculate_dm_sparse                 34  9.8    0.000    0.000    0.073    0.078
 dbcsr_make_dense_low              2212 16.0    0.008    0.008    0.052    0.078
 dbcsr_dot_sd                       415 12.5    0.006    0.008    0.045    0.076
 pw_grid_setup                        8  5.4    0.013    0.026    0.074    0.075
 pw_grid_setup_internal               8  6.4    0.017    0.026    0.062    0.074
 qs_env_setup                         1  4.0    0.000    0.000    0.063    0.074
 qs_env_rebuild_pw_env                5  5.0    0.000    0.000    0.062    0.073
 pw_env_rebuild                       1  6.0    0.011    0.011    0.062    0.073
 add_fine2coarse_comm                 6  7.5    0.000    0.001    0.047    0.070
 dbcsr_create_new                  8998 15.5    0.039    0.042    0.065    0.069
 cp_fm_cholesky_decompose             4 10.2    0.067    0.069    0.067    0.069
 topology_coordinate_pack_89          2  5.0    0.066    0.069    0.066    0.069
 fft_wrap_pw1pw2_40                  68 14.3    0.003    0.004    0.062    0.068
 make_dense_data                   2212 17.0    0.027    0.048    0.042    0.067
 xb88_lda_eval                       34 14.7    0.046    0.066    0.046    0.066
 cp_dbcsr_sm_fm_multiply              6 10.3    0.000    0.000    0.065    0.066
 read_mo_set_from_restart             1  8.0    0.002    0.053    0.065    0.066
 post_process_bonds_info              2  8.0    0.063    0.065    0.063    0.065
 qmmm_calculate_energy               34 10.7    0.000    0.001    0.059    0.064
 pw_copy                            451 12.7    0.054    0.064    0.054    0.064
 topology_connectivity_pack           2  4.0    0.000    0.002    0.059    0.063
 cp_gemm                             16  9.7    0.000    0.000    0.061    0.063
 cp_gemm_fm_gemm                     16 10.7    0.000    0.000    0.061    0.063
 cp_fm_gemm                          16 11.7    0.060    0.063    0.060    0.063
 hybrid_alltoall_any               1317 16.8    0.008    0.016    0.052    0.062
 hfx_create                           1  3.0    0.016    0.061    0.016    0.062
 setup_velocities                     1  3.0    0.000    0.000    0.055    0.058
 initialize_velocities                1  4.0    0.055    0.058    0.055    0.058
 multiply_cannon_metrocomm1       10304 15.9    0.009    0.010    0.021    0.056
 conform_atom_type_low               48  9.0    0.054    0.056    0.054    0.056
 pw_derive                          210 13.0    0.045    0.055    0.045    0.055
 update_pmax_mat                      2  9.5    0.050    0.054    0.050    0.054
 create_qs_kind_set                   1  3.0    0.000    0.000    0.054    0.054
 read_qs_kind                         6  4.0    0.019    0.030    0.054    0.054
 clean_intra_force_kind               1  5.0    0.048    0.054    0.048    0.054
 mp_alltoall_i22                    145 13.8    0.041    0.053    0.041    0.053
 qs_create_task_list                  2  7.5    0.000    0.001    0.023    0.052
 generate_qs_task_list                2  8.5    0.003    0.004    0.023    0.052
 cp_dbcsr_sm_fm_multiply_core         6 11.3    0.000    0.000    0.049    0.052
 multiply_cannon_metrocomm2        9016 15.9    0.014    0.015    0.039    0.052
 rs_scatter_matrices                 36  9.9    0.003    0.004    0.044    0.049
 distribute_tasks                     2  9.5    0.001    0.004    0.019    0.048
 mp_sum_dv                          110 15.2    0.028    0.048    0.028    0.048
 copy_dbcsr_to_fm                    29 10.2    0.000    0.000    0.044    0.048
 force_intra_control                  2  4.5    0.042    0.048    0.042    0.048
 psf_post_process                     1  6.0    0.046    0.047    0.046    0.047
 mp_max_i                           538  1.8    0.029    0.045    0.029    0.045
 rs_grid_zero                        80 14.5    0.037    0.044    0.037    0.044
 mp_irecv_dm3                      1024 13.9    0.015    0.044    0.015    0.044
 lyp_lda_eval                        34 14.7    0.025    0.043    0.025    0.043
 build_der_A_matrix_rows              6 11.5    0.037    0.043    0.037    0.043
 rot_ana                              1  3.0    0.014    0.014    0.041    0.043
 dbcsr_finalize                    1638 14.2    0.007    0.009    0.035    0.043
 load_balance_distributed             4 10.5    0.000    0.000    0.015    0.043
 qs_ot_p2m_taylor                    34 11.7    0.000    0.000    0.040    0.042
 dbcsr_add_d                        752 13.2    0.001    0.001    0.029    0.042
 get_current_loads                   24 11.5    0.000    0.000    0.013    0.041
 dbcsr_add_anytype                  752 14.2    0.007    0.012    0.029    0.041
 compute_load_list                    8 11.5    0.001    0.002    0.013    0.041
 mp_alltoall_l                       26 12.4    0.012    0.040    0.012    0.040
 topology_coordinate_pack_1           2  5.0    0.037    0.039    0.037    0.039
 post_process_LJ_info                 1  8.0    0.027    0.039    0.027    0.039
 hfx_update_load_balance              2 12.5    0.028    0.029    0.038    0.039
 cp_fm_cholesky_restore               4 10.5    0.038    0.039    0.038    0.039
 get_fft_scratch                    591 16.3    0.034    0.039    0.034    0.039
 fft3d_s                              1  2.0    0.000    0.000    0.031    0.036
 ewald_ddapc_pot                      4  9.5    0.009    0.010    0.018    0.035
 dbcsr_complete_redistribute         56 11.3    0.006    0.007    0.032    0.035
 write_mo_set_to_restart             32  7.9    0.000    0.009    0.014    0.034
 dbcsr_cholesky_invert                2 12.5    0.032    0.032    0.034    0.034
 force_field_pack_eicut               1  6.0    0.033    0.033    0.033    0.033
 dbcsr_iterator_start              7697 16.2    0.015    0.020    0.024    0.033
 derivatives_four_center_getP         2  9.5    0.007    0.008    0.029    0.032
 pw_zero                            790  6.8    0.024    0.032    0.024    0.032
 mp_max_d                             2  3.5    0.017    0.032    0.017    0.032
 write_mo_set_low                     3  8.7    0.000    0.001    0.011    0.029
 cp_fm_write_unformatted              3  9.7    0.010    0.018    0.011    0.029
 remove_restart_info                  1  2.0    0.025    0.029    0.025    0.029
 dbcsr_new_transposed               262 13.9    0.003    0.003    0.025    0.029
 diamat_all                           1  4.0    0.027    0.029    0.027    0.029
 pw_axpy                            720  8.5    0.024    0.028    0.024    0.028
 dbcsr_desymmetrize_deep             29 11.2    0.001    0.001    0.025    0.027
[...]
 mp_comm_compare                    599 16.3    0.002    0.002    0.002    0.002
 dbcsr_set                          337 13.0    0.000    0.000    0.002    0.002
 fix_atom_control                     2  3.5    0.002    0.002    0.002    0.002
 wfs_update                           2  5.5    0.000    0.000    0.002    0.002
 build_neighbor_lists_sap_ppnl        2  7.5    0.002    0.002    0.002    0.002
 copy_fm_to_dbcsr_bc                 27 11.4    0.000    0.001    0.002    0.002
 mp_rank_compare                    590 16.4    0.002    0.002    0.002    0.002
 fill_hash_tables                   644 16.9    0.002    0.002    0.002    0.002
 multiply_cannon_multrec_finali     644 16.9    0.000    0.000    0.002    0.002
 dbcsr_zero                         337 14.0    0.002    0.002    0.002    0.002
 dbcsr_make_dbcsr_index            4043 17.0    0.001    0.002    0.001    0.002
 dbcsr_fill_wm_from_matrix          130 14.3    0.001    0.001    0.001    0.002
 optimize_load_list                   4 11.5    0.000    0.000    0.001    0.002
 topology_connectivity_pack_6         2  5.0    0.002    0.002    0.002    0.002
 pw_pool_create_pw                 1122 11.7    0.001    0.001    0.001    0.002
 dbcsr_scale_anytype                818 15.2    0.001    0.001    0.001    0.002
 tree_to_linear_d                   124 15.1    0.001    0.002    0.001    0.002
 rs_grid_create_descriptor            5  6.8    0.000    0.000    0.001    0.002
 cp_fm_create                        55 10.4    0.001    0.002    0.001    0.002
 dbcsr_scale_d                       66 13.8    0.000    0.000    0.001    0.002
 mp_alltoall_l11v                     2 11.5    0.001    0.002    0.001    0.002
 dbcsr_mm_multrec_finalize          644 17.9    0.001    0.001    0.001    0.002
 dbcsr_reserve_blocks               179 14.7    0.001    0.001    0.001    0.001
 bonded_correct_gaussian              2  4.5    0.001    0.001    0.001    0.001
 rs_grid_create                      17  6.8    0.001    0.001    0.001    0.001
 topology_constraint_pack             1  5.0    0.000    0.000    0.000    0.001
 topology_constraint_pack_1           1  6.0    0.000    0.001    0.000    0.001
 topology_coordinate_pack_7b          2  5.0    0.001    0.001    0.001    0.001
 mp_environ_c                       590 16.4    0.001    0.001    0.001    0.001
 create_col_vec_from_matrix          68 13.7    0.000    0.000    0.001    0.001
 transpose_index_local              262 14.9    0.000    0.001    0.001    0.001
 scf_c_write_parameters               1  4.0    0.000    0.001    0.000    0.001
 build_neighbor_lists_sab_core        2  7.5    0.001    0.001    0.001    0.001
 dbcsr_index_prune_deleted         1686 16.2    0.001    0.001    0.001    0.001
 pw_poisson_set                       3  6.0    0.001    0.001    0.001    0.001
 mp_environ_l                      1845 12.9    0.001    0.001    0.001    0.001
 mp_allgather_l                      26 12.4    0.001    0.001    0.001    0.001
 pw_scale                            34 11.7    0.001    0.001    0.001    0.001
 topology_coordinate_pack_10          2  5.0    0.000    0.001    0.000    0.001
 dbcsr_get_local_cols              1170 14.6    0.001    0.001    0.001    0.001
 mp_sum_im                           12  8.4    0.001    0.001    0.001    0.001
 mp_allgatherv_iv                     2 13.5    0.001    0.001    0.001    0.001
 pw_pool_give_back_pw              1249 11.8    0.001    0.001    0.001    0.001
 dbcsr_data_copy_aa2                403 15.3    0.001    0.001    0.001    0.001
 dbcsr_reserve_all_blocks           163 14.4    0.000    0.000    0.001    0.001
 load_balance_replicated              2 10.5    0.000    0.000    0.001    0.001
 dbcsr_get_local_rows              1170 14.6    0.001    0.001    0.001    0.001
 mp_comm_free                       125  9.8    0.001    0.001    0.001    0.001
 topology_connectivity_pack_13_       2  5.0    0.001    0.001    0.001    0.001
 cp_dbcsr_alloc_block_from_nbl       16  7.2    0.000    0.000    0.001    0.001
 pw_create                          243 11.2    0.001    0.001    0.001    0.001
 create_fast_row_vec_access          34 15.7    0.000    0.000    0.000    0.001
 dbcsr_mm_sched_init                644 16.9    0.000    0.001    0.000    0.001
 dbcsr_make_index_local_row        1932 14.9    0.001    0.001    0.001    0.001
 mp_bcast_i3                          4 12.5    0.001    0.001    0.001    0.001
 create_fast_row_vec_access_d        34 16.7    0.000    0.001    0.000    0.001
 qs_env_rebuild_rho                   2  7.5    0.000    0.000    0.001    0.001
 dbcsr_get_data_size_used          1598 15.4    0.001    0.001    0.001    0.001
 qs_rho_rebuild                       2  8.5    0.000    0.000    0.001    0.001
 pw_poisson_rebuild                  38 11.1    0.001    0.001    0.001    0.001
 dbcsr_sort_data                    236 15.8    0.000    0.001    0.000    0.001
 copy_dbcsr_to_fm_bc                 29 11.2    0.001    0.001    0.001    0.001
 force_field_pack_radius              1  6.0    0.001    0.001    0.001    0.001
 dbcsr_scale_by_vector_anytype       32 10.9    0.000    0.001    0.000    0.001
 dbcsr_matrix_vector_mult_local      34 15.7    0.000    0.001    0.000    0.001
 mp_sum_root_iv                       4 12.5    0.000    0.001    0.000    0.001
 create_replicated_col_vec_from      34 13.7    0.000    0.000    0.001    0.001
 build_neighbor_lists_sab_all         2  7.5    0.000    0.001    0.000    0.001
 topology_coordinate_pack_7a          2  5.0    0.001    0.001    0.001    0.001
 mpools_rebuild_fm_pools              1  5.0    0.000    0.001    0.001    0.001
 topology_connectivity_pack_1         2  5.0    0.001    0.001    0.001    0.001
 init_interaction_radii               1  4.0    0.000    0.001    0.000    0.001
 mp_wait                              2  5.5    0.000    0.001    0.000    0.001
 fist_neighbor_init                   1  7.0    0.000    0.001    0.000    0.001
 create_replicated_row_vec_from      34 13.7    0.000    0.000    0.000    0.001
 build_neighbor_lists_sab_orb         2  7.5    0.000    0.001    0.000    0.001
 ot_scf_read_input                    2  7.5    0.000    0.000    0.000    0.001
 mp_comm_split                        6 12.8    0.000    0.001    0.000    0.001
 topology_connectivity_pack_11_       2  5.0    0.000    0.001    0.000    0.001
 ot_readwrite_input                   2  8.5    0.000    0.001    0.000    0.001
 mp_max_r                             1  2.0    0.000    0.001    0.000    0.001
 qs_scf_loop_print                   32  7.9    0.000    0.000    0.000    0.000
 topology_generate_molecule_PAR       2  6.0    0.000    0.000    0.000    0.000
 mp_sum_partial_im                    4 12.5    0.000    0.000    0.000    0.000
 scf_post_calculation_gpw             2  5.5    0.000    0.000    0.000    0.000
 cp_fm_to_fm_columns                  2 10.5    0.000    0.000    0.000    0.000
 topology_connectivity_pack_12_       2  5.0    0.000    0.000    0.000    0.000
 qs_scf_write_mos                    34  7.9    0.000    0.000    0.000    0.000
 topology_connectivity_pack_7         2  5.0    0.000    0.000    0.000    0.000
 hfx_create_basis_types               8  4.0    0.000    0.000    0.000    0.000
 dbcsr_mm_sched_finalize            644 18.9    0.000    0.000    0.000    0.000
 offload_create_buffer               21  8.1    0.000    0.000    0.000    0.000
 topology_connectivity_pack_3         2  5.0    0.000    0.000    0.000    0.000
 balance_global_list                  4 12.5    0.000    0.000    0.000    0.000
 dbcsr_get_global_row_map           644 13.9    0.000    0.000    0.000    0.000
 dbcsr_mm_hostdrv_init              644 17.9    0.000    0.000    0.000    0.000
 qs_scf_ensure_work_matrices          2  5.5    0.000    0.000    0.000    0.000
 cleanup_scf_loop                     2  7.5    0.000    0.000    0.000    0.000
 create_fast_col_vec_access          34 15.7    0.000    0.000    0.000    0.000
 topology_connectivity_pack_8         2  5.0    0.000    0.000    0.000    0.000
 qmmm_coordinate_control              1  6.0    0.000    0.000    0.000    0.000
 pw_grid_allocate                     8  7.4    0.000    0.000    0.000    0.000
 qs_efield_local_operator            34 10.7    0.000    0.000    0.000    0.000
 write_available_results              2  6.5    0.000    0.000    0.000    0.000
 create_fast_col_vec_access_d        34 16.7    0.000    0.000    0.000    0.000
 topology_connectivity_pack_1.1       2  5.0    0.000    0.000    0.000    0.000
 dbcsr_get_global_col_map           644 13.9    0.000    0.000    0.000    0.000
 distribute_molecules_2d              1  5.0    0.000    0.000    0.000    0.000
 create_destination_list              4 11.5    0.000    0.000    0.000    0.000
 topology_coordinate_pack_4           2  5.0    0.000    0.000    0.000    0.000
 qs_scf_ensure_mos                    2  5.5    0.000    0.000    0.000    0.000
 pw_hfx                              34 11.7    0.000    0.000    0.000    0.000
 cp_fm_to_fm_matrix                   7  9.1    0.000    0.000    0.000    0.000
 mp_allgatherv_lv                     1 15.0    0.000    0.000    0.000    0.000
 write_mo_free_results                2  7.5    0.000    0.000    0.000    0.000
 force_field_pack_charge              1  6.0    0.000    0.000    0.000    0.000
 mp_min_lv                            5  8.8    0.000    0.000    0.000    0.000
 mp_isend_dm2                         2  5.5    0.000    0.000    0.000    0.000
 topology_set_atm_mass                1  4.0    0.000    0.000    0.000    0.000
 topology_generate_onfo               1  4.0    0.000    0.000    0.000    0.000
 force_field_pack_shell               1  6.0    0.000    0.000    0.000    0.000
 qs_efield_berry_phase               34 10.7    0.000    0.000    0.000    0.000
 mp_cart_coords                     640  9.8    0.000    0.000    0.000    0.000
 mp_sum_r                             1  2.0    0.000    0.000    0.000    0.000
 set_mo_occupation_1                 35  9.7    0.000    0.000    0.000    0.000
 qs_scf_print_scf_summary             2  7.5    0.000    0.000    0.000    0.000
 add_external_potential               2  3.5    0.000    0.000    0.000    0.000
 mp_max_lv                            5  8.8    0.000    0.000    0.000    0.000
 qs_ks_did_change                    36  7.9    0.000    0.000    0.000    0.000
 write_mo_dependent_results           2  7.5    0.000    0.000    0.000    0.000
 ewald_pw_release                     4  3.5    0.000    0.000    0.000    0.000
 spline_env_create                    2  8.0    0.000    0.000    0.000    0.000
 rs_grid_reorder_ranks                2 10.5    0.000    0.000    0.000    0.000
 read_qs_section                      1  4.0    0.000    0.000    0.000    0.000
 external_read_density                2  6.5    0.000    0.000    0.000    0.000
 compute_averages                     1  5.0    0.000    0.000    0.000    0.000
 qs_scf_post_elf                      2  6.5    0.000    0.000    0.000    0.000
 mp_min_i                             3  6.0    0.000    0.000    0.000    0.000
 update_motion_COUNTERS               1  7.0    0.000    0.000    0.000    0.000
 scf_env_release                      3  4.0    0.000    0.000    0.000    0.000
 atom2d_build                         2  7.5    0.000    0.000    0.000    0.000
 write_qs_particle_coordinates        3  3.7    0.000    0.000    0.000    0.000
 cp_fm_release                       60  9.4    0.000    0.000    0.000    0.000
 dump_info_core_hamiltonian           4  6.5    0.000    0.000    0.000    0.000
 write_structure_data                 4  4.5    0.000    0.000    0.000    0.000
 cp_ddapc_apply_RF                   34 11.7    0.000    0.000    0.000    0.000
 scf_env_create                       1  5.0    0.000    0.000    0.000    0.000
 force_field_pack_pol                 1  6.0    0.000    0.000    0.000    0.000
 outer_loop_extrapolate               2  6.5    0.000    0.000    0.000    0.000
 print_atomic_charges                34 14.7    0.000    0.000    0.000    0.000
 make_basic_distribution              1  6.0    0.000    0.000    0.000    0.000
 update_motion_AVERAGES               1  7.0    0.000    0.000    0.000    0.000
 scf_c_create                         1  4.0    0.000    0.000    0.000    0.000
 scf_c_read_parameters                1  4.0    0.000    0.000    0.000    0.000
 dbcsr_filter_anytype                42 10.1    0.000    0.000    0.000    0.000
 external_c_potential                 4  5.5    0.000    0.000    0.000    0.000
 hfx_release_basis_types              8  2.0    0.000    0.000    0.000    0.000
 qs_scf_post_charges                  2  6.5    0.000    0.000    0.000    0.000
 qs_energies_properties               2  5.5    0.000    0.000    0.000    0.000
 destroy_preconditioner               2  5.5    0.000    0.000    0.000    0.000
 mp_sum_lm3                           1  2.0    0.000    0.000    0.000    0.000
 force_field_pack_damp                1  6.0    0.000    0.000    0.000    0.000
 mp_min_rv                            1  2.0    0.000    0.000    0.000    0.000
 mp_sum_rv                            1  2.0    0.000    0.000    0.000    0.000
 calculate_ecore_self                 4  5.5    0.000    0.000    0.000    0.000
 mp_max_rv                            1  2.0    0.000    0.000    0.000    0.000
 release_fast_vec_access             68 15.7    0.000    0.000    0.000    0.000
 read_tddfpt2_control                 1  4.0    0.000    0.000    0.000    0.000
 metadyn_integrator                   1  4.0    0.000    0.000    0.000    0.000
 qs_scf_post_ps_implicit              2  8.5    0.000    0.000    0.000    0.000
 set_mo_occupation_2                  1  8.0    0.000    0.000    0.000    0.000
 reset_ch_pulay                       2  8.5    0.000    0.000    0.000    0.000
 temperature_control                  1  3.0    0.000    0.000    0.000    0.000
 outer_loop_gradient                  2  7.5    0.000    0.000    0.000    0.000
 offload_free_buffer                 19  5.3    0.000    0.000    0.000    0.000
 topology_generate_bend               1  4.0    0.000    0.000    0.000    0.000
 qs_scf_post_transport                2  8.5    0.000    0.000    0.000    0.000
 check_diag                           6 10.8    0.000    0.000    0.000    0.000
 update_cell_section                  1  7.0    0.000    0.000    0.000    0.000
 topology_coordinate_pack_2           2  5.0    0.000    0.000    0.000    0.000
 dbcsr_verify_matrix                  4  9.5    0.000    0.000    0.000    0.000
 read_topology_section                1  5.0    0.000    0.000    0.000    0.000
 read_binary_velocities               3  5.0    0.000    0.000    0.000    0.000
 resp_fit                             2  7.5    0.000    0.000    0.000    0.000
 grid_free_task_list                  1  2.0    0.000    0.000    0.000    0.000
 initialize_cascade                   1  4.0    0.000    0.000    0.000    0.000
 write_particle_distances             2  4.5    0.000    0.000    0.000    0.000
 write_molecule_kind_set              2  4.5    0.000    0.000    0.000    0.000
 check_cp2k_input                     1  2.0    0.000    0.000    0.000    0.000
 transport_current                    2  9.5    0.000    0.000    0.000    0.000
 mp_cart_rank                         8  8.4    0.000    0.000    0.000    0.000
 read_binary_cs_coordinates           2  7.0    0.000    0.000    0.000    0.000
 calculate_ecore_efield               4  5.5    0.000    0.000    0.000    0.000
 fp_env_release                       3  2.0    0.000    0.000    0.000    0.000
 topology_muc                         2  5.0    0.000    0.000    0.000    0.000
 grid_create_basis_set                6  9.0    0.000    0.000    0.000    0.000
 ec_env_release                       1  2.0    0.000    0.000    0.000    0.000
 write_ks_matrix_csr                  2  8.5    0.000    0.000    0.000    0.000
 grid_free_basis_set                  6  2.0    0.000    0.000    0.000    0.000
 write_mos_molden                     2  8.5    0.000    0.000    0.000    0.000
 cp_fm_scale                          1  9.0    0.000    0.000    0.000    0.000
 write_symmetry                       2  4.5    0.000    0.000    0.000    0.000
 write_qs_control                     1  4.0    0.000    0.000    0.000    0.000
 mp_irecv_dm2                         2  5.5    0.000    0.000    0.000    0.000
 comvel_control                       1  3.0    0.000    0.000    0.000    0.000
 read_mgrid_section                   1  4.0    0.000    0.000    0.000    0.000
 qs_scf_post_local_energy             2  8.5    0.000    0.000    0.000    0.000
 write_s_matrix_csr                   2  8.5    0.000    0.000    0.000    0.000
 qs_scf_post_efg                      2  6.5    0.000    0.000    0.000    0.000
 qs_scf_post_xray                     2  6.5    0.000    0.000    0.000    0.000
 qs_scf_post_moments                  2  6.5    0.000    0.000    0.000    0.000
 qs_scf_post_epr                      2  6.5    0.000    0.000    0.000    0.000
 write_adjacency_matrix               2  8.5    0.000    0.000    0.000    0.000
 cp_result_release                    2  2.0    0.000    0.000    0.000    0.000
 qs_scf_post_molopt                   2  6.5    0.000    0.000    0.000    0.000
 qs_scf_post_local_stress             2  8.5    0.000    0.000    0.000    0.000
 scf_env_cleanup                      2  5.5    0.000    0.000    0.000    0.000
 topology_constraint_pack_3           1  6.0    0.000    0.000    0.000    0.000
 topology_constraint_pack_7           1  6.0    0.000    0.000    0.000    0.000
 write_dm_binary_restart              2  8.5    0.000    0.000    0.000    0.000
 write_dft_control                    1  4.0    0.000    0.000    0.000    0.000
 write_gto_basis_sets                 1  4.0    0.000    0.000    0.000    0.000
 metadyn_read                         1  2.0    0.000    0.000    0.000    0.000
 external_e_potential                 4  5.5    0.000    0.000    0.000    0.000
 cp_fm_set_all                        1  9.0    0.000    0.000    0.000    0.000
 topology_constraint_pack_5           1  6.0    0.000    0.000    0.000    0.000
 read_binary_coordinates              1  5.0    0.000    0.000    0.000    0.000
 topology_connectivity_pack_14_       2  5.0    0.000    0.000    0.000    0.000
 write_qs_kind_set                    1  4.0    0.000    0.000    0.000    0.000
 kpoint_initialize                    1  3.0    0.000    0.000    0.000    0.000
 print_pot_parameter_file             1  5.0    0.000    0.000    0.000    0.000
 wfn_mix                              2  6.5    0.000    0.000    0.000    0.000
 topology_constraint_pack_6           1  6.0    0.000    0.000    0.000    0.000
 wannier90_interface                  2  6.5    0.000    0.000    0.000    0.000
 qs_scf_post_et                       2  6.5    0.000    0.000    0.000    0.000
 linres_calculation_low               2  6.5    0.000    0.000    0.000    0.000
 -------------------------------------------------------------------------------

 The number of warnings for this run is : 3
 
 -------------------------------------------------------------------------------
  **** **** ******  **  PROGRAM ENDED AT                 2021-12-10 16:29:30.953
 ***** ** ***  *** **   PROGRAM RAN ON                                 nid004134
 **    ****   ******    PROGRAM RAN BY                                     hjbio
 ***** **    ** ** **   PROGRAM PROCESS ID                                225901
  **** **  *******  **  PROGRAM STOPPED IN /mnt/lustre/a2fs-work1/work/d118/d118
                                           /hjbio/CP2K/qmmm-benchmarking/CPU/cp2
                                           kMD/ClC-253-B3LYP/1STEPS/8NODES/128CP
                                           N/8THREADS
