 DBCSR| CPU Multiplication driver                                           BLAS
 DBCSR| Multrec recursion limit                                              512
 DBCSR| Multiplication stack size                                           1000
 DBCSR| Maximum elements for images                                    UNLIMITED
 DBCSR| Multiplicative factor virtual images                                   1
 DBCSR| Use multiplication densification                                       T
 DBCSR| Multiplication size stacks                                             3
 DBCSR| Use memory pool for CPU allocation                                     F
 DBCSR| Number of 3D layers                                               SINGLE
 DBCSR| Use MPI memory allocation                                              F
 DBCSR| Use RMA algorithm                                                      F
 DBCSR| Use Communication thread                                               T
 DBCSR| Communication thread load                                             83
 DBCSR| MPI: My node id                                                        0
 DBCSR| MPI: Number of nodes                                                  32
 DBCSR| OMP: Current number of threads                                         2
 DBCSR| OMP: Max number of threads                                             2
 DBCSR| Split modifier for TAS multiplication algorithm                  1.0E+00


  **** **** ******  **  PROGRAM STARTED AT               2021-08-31 17:17:38.878
 ***** ** ***  *** **   PROGRAM STARTED ON                             nid001734
 **    ****   ******    PROGRAM STARTED BY                                 hjbio
 ***** **    ** ** **   PROGRAM PROCESS ID                                 35345
  **** **  *******  **  PROGRAM STARTED IN /lus/cls01095/work/d118/d118/hjbio/qm
                                           mm-benchmarking/archer2/CPU/cp2kMD/CB
                                           D_PHY-PBE0/6STEPS/1NODES/64CPN/2THREA
                                           DS

 CP2K| version string:                                          CP2K version 8.2
 CP2K| source code revision number:                                  git:310b7ab
 CP2K| cp2kflags: omp libint fftw3 libxc elpa parallel mpi3 scalapack plumed2   
 CP2K| is freely available from                            https://www.cp2k.org/
 CP2K| Program compiled at                          Thu 10 Jun 17:43:51 BST 2021
 CP2K| Program compiled on                                                 uan01
 CP2K| Program compiled for                                              ARCHER2
 CP2K| Data directory path              /work/d118/d118/hjbio/CP2K/cp2k-8.2/data
 CP2K| Input file name                                          CBD_PHY-cp2k.inp

 GLOBAL| Force Environment number                                              1
 GLOBAL| Basis set file name                                           HFX_BASIS
 GLOBAL| Potential file name                                           POTENTIAL
 GLOBAL| MM Potential file name                                     MM_POTENTIAL
 GLOBAL| Coordinate file name                                        CBD_PHY.pdb
 GLOBAL| Method name                                                        CP2K
 GLOBAL| Project name                                               CBD_PHY-PBE0
 GLOBAL| Run type                                                             MD
 GLOBAL| FFT library                                                       FFTW3
 GLOBAL| Diagonalization library                                            ELPA
 GLOBAL| Minimum number of eigenvectors for ELPA usage                        16
 GLOBAL| Orthonormality check for eigenvectors                          DISABLED
 GLOBAL| Matrix multiplication library                                    SCALAP
 GLOBAL| All-to-all communication in single precision                          F
 GLOBAL| FFTs using library dependent lengths                                  F
 GLOBAL| Grid backend                                                       AUTO
 GLOBAL| Global print level                                                  LOW
 GLOBAL| MPI I/O enabled                                                       T
 GLOBAL| Total number of message passing processes                            32
 GLOBAL| Number of threads for this process                                    2
 GLOBAL| This output is from process                                           0
 GLOBAL| CPU model name                          AMD EPYC 7742 64-Core Processor
 GLOBAL| CPUID                                                              1002

 MEMORY| system memory details [Kb]
 MEMORY|                        rank 0           min           max       average
 MEMORY| MemTotal            263568576     263568576     263568576     263568576
 MEMORY| MemFree             240728640     240728640     240728640     240728640
 MEMORY| Buffers                338220        338220        338220        338220
 MEMORY| Cached                5101668       5101668       5101668       5101668
 MEMORY| Slab                  3094500       3094500       3094500       3094500
 MEMORY| SReclaimable           357624        357624        357624        357624
 MEMORY| MemLikelyFree       246526152     246526152     246526152     246526152



                      ************* ******** ***********   
                     ************* **********************  
                     ****     **** ****      ***********   
                     ******** ****  *******     ****       
                     *******  ****   *******   ****        
                     ****     ****       ****  ****        
                     ****     **** **********  ****        
                      ****     **** ********    ****       
                     FRONTIERS IN SIMULATION TECHNOLOGY    
                                                           
                        C.J. Mundy, S. Balasubramanian,    
                     Ken Bagchi, J. Hutter, Ari Seitsonen  
                      IFW Kuo, T. Laino, J. VandeVondele   
                                 Version 1.0               

                                                           


 EWALD| Summation is done by:                                               SPME
 EWALD| Alpha parameter [       ANGSTROM^-1]                              0.4000
 EWALD| Real Space Cutoff [          ANGSTROM]                            8.4348
 EWALD| G-space max. Miller index                         80        80        80
 EWALD| Spline interpolation order                                             6

 FORCEFIELD| WARNING: A non Critical ForceField parameter is missing! CP2K GOES!
 FORCEFIELD| Non critical parameters are:Urey-Bradley,Torsions,Impropers, Opbends and 1-4
 FORCEFIELD| All missing parameters will not contribute to the potential energy!
 FORCEFIELD| Activate the print key FF_INFO to have a list of missing parameters

 CHARGE_INFO| Total Charge of the Classical System:                    -0.825808

 SPLINE_INFO| Generating 101926 splines for NONBONDED14 interactions 
              Due to 451 different atomic kinds
  ...10192  ...20384  ...30576  ...40768  ...50960  ...61152  ...71344  ...81536  ...91728  ...101920
 SPLINE_INFO| Number of unique splines computed:            301
 SPLINE_INFO| Done

 SPLINE_INFO| Generating 101926 splines for NONBONDED interactions 
              Due to 451 different atomic kinds
  ...10192  ...20384  ...30576  ...40768  ...50960  ...61152  ...71344  ...81536  ...91728  ...101920
 SPLINE_INFO| Number of unique splines computed:            301
 SPLINE_INFO| Done

 *******************************************************************************
 *******************************************************************************
 **                                                                           **
 **     #####                         ##              ##                      **
 **    ##   ##            ##          ##              ##                      **
 **   ##     ##                       ##            ######                    **
 **   ##     ##  ##   ##  ##   #####  ##  ##   ####   ##    #####    #####    **
 **   ##     ##  ##   ##  ##  ##      ## ##   ##      ##   ##   ##  ##   ##   **
 **   ##  ## ##  ##   ##  ##  ##      ####     ###    ##   ######   ######    **
 **    ##  ###   ##   ##  ##  ##      ## ##      ##   ##   ##       ##        **
 **     #######   #####   ##   #####  ##  ##  ####    ##    #####   ##        **
 **           ##                                                    ##        **
 **                                                                           **
 **                                                ... make the atoms dance   **
 **                                                                           **
 **            Copyright (C) by CP2K developers group (2000-2021)             **
 **                      J. Chem. Phys. 152, 194103 (2020)                    **
 **                                                                           **
 *******************************************************************************


 TOTAL NUMBERS AND MAXIMUM NUMBERS

  Total number of            - Atomic kinds:                                   5
                             - Atoms:                                         68
                             - Shell sets:                                   340
                             - Shells:                                       445
                             - Primitive Cartesian functions:                476
                             - Cartesian basis functions:                   1137
                             - Spherical basis functions:                   1067

  Maximum angular momentum of- Orbital basis functions:                        2
                             - Local part of the GTH pseudopotential:          2
                             - Non-local part of the GTH pseudopotential:      0


 SCF PARAMETERS         Density guess:                                   RESTART
                        --------------------------------------------------------
                        max_scf:                                              30
                        max_scf_history:                                       0
                        max_diis:                                              4
                        --------------------------------------------------------
                        eps_scf:                                        1.00E-06
                        eps_scf_history:                                0.00E+00
                        eps_diis:                                       1.00E-01
                        eps_eigval:                                     1.00E-05
                        --------------------------------------------------------
                        level_shift [a.u.]:                                 0.00
                        --------------------------------------------------------
                        Outer loop SCF in use 
                        No variables optimised in outer loop
                        eps_scf                                         1.00E-06
                        max_scf                                               20
                        No outer loop optimization
                        step_size                                       5.00E-01

 *******************************************************************************
 *******************************************************************************
 **                                                                           **
 **             #######  ##     ## ##     ## ##     ##                        **
 **            ##     ## ###   ### ###   ### ###   ###                        **
 **            ##     ## #### #### #### #### #### ####                        **
 **            ##     ## ## ### ## ## ### ## ## ### ##                        **
 **            ##  ## ## ##     ## ##     ## ##     ##                        **
 **            ##    ##  ##     ## ##     ## ##     ##  T.Laino and F.Mohamed **
 **             ##### ## ##     ## ##     ## ##     ##  2005 - 2015           **
 **                                                                           **
 **                                                     Calculation Started.. **
 *******************************************************************************
 *******************************************************************************

 MD_PAR| Molecular dynamics protocol (MD input parameters)
 MD_PAR| Ensemble type                                                       NVE
 MD_PAR| Number of time steps                                                  6
 MD_PAR| Time step [fs]                                                 1.000000
 MD_PAR| Temperature [K]                                              300.000000
 MD_PAR| Temperature tolerance [K]                                      0.000000
 MD_PAR| Print MD information every                                    1 step(s)
 MD_PAR| File type   Print frequency [steps]                          File names
 MD_PAR| Coordinates          1                           CBD_PHY-PBE0-pos-1.xyz
 MD_PAR| Velocities           1                           CBD_PHY-PBE0-vel-1.xyz
 MD_PAR| Energies             1                              CBD_PHY-PBE0-1.ener
 MD_PAR| Dump                20                           CBD_PHY-PBE0-1.restart

 ROT| Rotational analysis information
 ROT| Principal axes and moments of inertia [a.u.]
 ROT|                           1                   2                   3
 ROT| Eigenvalues      1.56283164001E+13   1.56407408488E+13   1.56663418804E+13
 ROT|      x              0.901637047331     -0.018153263569      0.432112362589
 ROT|      y              0.323714777231      0.690893927917     -0.646431994388
 ROT|      z             -0.286808957117      0.722728191915      0.628812040859
 ROT| Number of rotovibrational vectors                                        6

 DOF| Calculation of degrees of freedom
 DOF| Number of atoms                                                     167923
 DOF| Number of intramolecular constraints                                     0
 DOF| Number of intermolecular constraints                                     0
 DOF| Invariants (translations + rotations)                                    3
 DOF| Degrees of freedom                                                  503766

 DOF| Restraints information
 DOF| Number of intramolecular restraints                                      0
 DOF| Number of intermolecular restraints                                      0

 MD_VEL| Velocities initialization
 MD_VEL| Initial temperature [K]                                      300.000000
 MD_VEL| COM velocity            -0.0000000000     0.0000000000     0.0000000000

  Translating the system in order to center the QM fragment in the QM box.

 Number of electrons:                                                        180
 Number of occupied orbitals:                                                 90
 Number of molecular orbitals:                                                90

 Number of orbital functions:                                               1067
 Number of independent orbital functions:                                   1067

 Extrapolation method: initial_guess


 SCF WAVEFUNCTION OPTIMIZATION

  ----------------------------------- OT ---------------------------------------
  Minimizer      : DIIS                : direct inversion
                                         in the iterative subspace
                                         using   7 DIIS vectors
                                         safer DIIS on
  Preconditioner : FULL_ALL            : diagonalization, state selective
  Precond_solver : DEFAULT
  stepsize       :    0.15000000                  energy_gap     :    0.08000000
  eps_taylor     :   0.10000E-15                  max_taylor     :             4
  ----------------------------------- OT ---------------------------------------

  Step     Update method      Time    Convergence         Total energy    Change
  ------------------------------------------------------------------------------
  Decoupling Energy:                                               0.0370647021
  Recoupling Energy:                                              -0.0063741479
     1 OT DIIS     0.15E+00   20.1     0.00129057      -255.9257316521 -2.56E+02
  Decoupling Energy:                                               0.0370576004
  Recoupling Energy:                                              -0.0063740314
     2 OT DIIS     0.15E+00    3.8     0.00057761      -255.9419521977 -1.62E-02
  Decoupling Energy:                                               0.0369596417
  Recoupling Energy:                                              -0.0063730135
     3 OT DIIS     0.15E+00    3.8     0.00038348      -255.9451217318 -3.17E-03
  Decoupling Energy:                                               0.0369795470
  Recoupling Energy:                                              -0.0063732416
     4 OT DIIS     0.15E+00    3.8     0.00009866      -255.9458275768 -7.06E-04
  Decoupling Energy:                                               0.0369716948
  Recoupling Energy:                                              -0.0063731487
     5 OT DIIS     0.15E+00    3.8     0.00003992      -255.9458779686 -5.04E-05
  Decoupling Energy:                                               0.0369737640
  Recoupling Energy:                                              -0.0063731649
     6 OT DIIS     0.15E+00    3.8     0.00001793      -255.9458894170 -1.14E-05
  Decoupling Energy:                                               0.0369741808
  Recoupling Energy:                                              -0.0063731680
     7 OT DIIS     0.15E+00    3.8     0.00000621      -255.9458922938 -2.88E-06
  Decoupling Energy:                                               0.0369727127
  Recoupling Energy:                                              -0.0063731518
     8 OT DIIS     0.15E+00    3.8     0.00000242      -255.9458926328 -3.39E-07
  Decoupling Energy:                                               0.0369731061
  Recoupling Energy:                                              -0.0063731556
     9 OT DIIS     0.15E+00    3.8     0.00000111      -255.9458926822 -4.94E-08
  Decoupling Energy:                                               0.0369728228
  Recoupling Energy:                                              -0.0063731526
    10 OT DIIS     0.15E+00    3.8     0.00000048      -255.9458926924 -1.02E-08

  *** SCF run converged in    10 steps ***


  Electronic density on regular grids:       -179.9999999999        0.0000000001
  Core density on regular grids:              180.9999999999       -0.0000000001
  Total charge density on r-space grids:        1.0000000000
  Total charge density g-space grids:           1.0000000000

  Overlap energy of the core charge distribution:               0.00001951532734
  Self energy of the core charge distribution:               -615.71576003586028
  Core Hamiltonian energy:                                    191.01363220817962
  Hartree energy:                                             248.20663869015641
  Exchange-correlation energy:                                -61.38430761263385
  Hartree-Fock Exchange energy:                               -18.10821018492854
  QM/MM Electrostatic energy:                                   0.04209472735444

  Total energy:                                              -255.94589269240484

  outer SCF iter =    1 RMS gradient =   0.48E-06 energy =       -255.9458926924
  outer SCF loop converged in   1 iterations or   10 steps

  Decoupling Energy:                                               0.0369728028
  Recoupling Energy:                                              -0.0063731523

 ENERGY| Total FORCE_EVAL ( QMMM ) energy [a.u.]:          -1088.110859624526483

 MD_INI| MD initialization
 MD_INI| Potential energy [hartree]                          -0.108811085962E+04
 MD_INI| Total kinetic energy [hartree]                       0.239300084734E+03
 MD_INI| QM kinetic energy [hartree]                          0.106639360339E+00
 MD_INI| Total temperature [K]                                        300.000000
 MD_INI| QM temperature [K]                                           330.137318
 MD_INI| Cell volume [bohr^3]                                 1.137316355424E+07
 MD_INI| Cell volume [ang^3]                                  1.685328937712E+06
 MD_INI| Cell lengths [bohr]      2.24884969E+02  2.24884969E+02  2.24884969E+02
 MD_INI| Cell lengths [ang]       1.19004000E+02  1.19004000E+02  1.19004000E+02
 MD_INI| Cell angles [deg]        9.00000000E+01  9.00000000E+01  9.00000000E+01

  Translating the system in order to center the QM fragment in the QM box.

 Number of electrons:                                                        180
 Number of occupied orbitals:                                                 90
 Number of molecular orbitals:                                                90

 Number of orbital functions:                                               1067
 Number of independent orbital functions:                                   1067

 Extrapolation method: ASPC


 SCF WAVEFUNCTION OPTIMIZATION

  ----------------------------------- OT ---------------------------------------
  Minimizer      : DIIS                : direct inversion
                                         in the iterative subspace
                                         using   7 DIIS vectors
                                         safer DIIS on
  Preconditioner : FULL_ALL            : diagonalization, state selective
  Precond_solver : DEFAULT
  stepsize       :    0.15000000                  energy_gap     :    0.08000000
  eps_taylor     :   0.10000E-15                  max_taylor     :             4
  ----------------------------------- OT ---------------------------------------

  Step     Update method      Time    Convergence         Total energy    Change
  ------------------------------------------------------------------------------
  Decoupling Energy:                                               0.0370014667
  Recoupling Energy:                                              -0.0063734172
     1 OT DIIS     0.15E+00   16.5     0.00075899      -255.7182133780 -2.56E+02
  Decoupling Energy:                                               0.0370082386
  Recoupling Energy:                                              -0.0063735355
     2 OT DIIS     0.15E+00    3.7     0.00032685      -255.7237312578 -5.52E-03
  Decoupling Energy:                                               0.0370087411
  Recoupling Energy:                                              -0.0063735590
     3 OT DIIS     0.15E+00    3.7     0.00019068      -255.7247685888 -1.04E-03
  Decoupling Energy:                                               0.0370199883
  Recoupling Energy:                                              -0.0063736817
     4 OT DIIS     0.15E+00    3.7     0.00006054      -255.7249610259 -1.92E-04
  Decoupling Energy:                                               0.0370216763
  Recoupling Energy:                                              -0.0063737045
     5 OT DIIS     0.15E+00    3.7     0.00001954      -255.7249775907 -1.66E-05
  Decoupling Energy:                                               0.0370210005
  Recoupling Energy:                                              -0.0063736984
     6 OT DIIS     0.15E+00    3.7     0.00000817      -255.7249798490 -2.26E-06
  Decoupling Energy:                                               0.0370221930
  Recoupling Energy:                                              -0.0063737124
     7 OT DIIS     0.15E+00    3.8     0.00000308      -255.7249803111 -4.62E-07
  Decoupling Energy:                                               0.0370222382
  Recoupling Energy:                                              -0.0063737132
     8 OT DIIS     0.15E+00    3.7     0.00000136      -255.7249803883 -7.72E-08
  Decoupling Energy:                                               0.0370224659
  Recoupling Energy:                                              -0.0063737159
     9 OT DIIS     0.15E+00    3.8     0.00000058      -255.7249804041 -1.57E-08

  *** SCF run converged in     9 steps ***


  Electronic density on regular grids:       -180.0000000000        0.0000000000
  Core density on regular grids:              180.9999999999       -0.0000000001
  Total charge density on r-space grids:        0.9999999999
  Total charge density g-space grids:           0.9999999999

  Overlap energy of the core charge distribution:               0.00002422739645
  Self energy of the core charge distribution:               -615.71576003586028
  Core Hamiltonian energy:                                    191.21094983425039
  Hartree energy:                                             248.07774823407749
  Exchange-correlation energy:                                -61.42683491721482
  Hartree-Fock Exchange energy:                               -18.12283148433928
  QM/MM Electrostatic energy:                                   0.25172373763863

  Total energy:                                              -255.72498040405139

  outer SCF iter =    1 RMS gradient =   0.58E-06 energy =       -255.7249804041
  outer SCF loop converged in   1 iterations or    9 steps

  Decoupling Energy:                                               0.0370224945
  Recoupling Energy:                                              -0.0063737164

 ENERGY| Total FORCE_EVAL ( QMMM ) energy [a.u.]:          -1059.962356573712441

 MD| ***************************************************************************
 MD| Step number                                                               1
 MD| Time [fs]                                                          1.000000
 MD| Conserved quantity [hartree]                            -0.841461427174E+03
 MD| ---------------------------------------------------------------------------
 MD|                                          Instantaneous             Averages
 MD| CPU time per MD step [s]                    277.240018           277.240018
 MD| Energy drift per atom [K]           0.138202490874E+02   0.000000000000E+00
 MD| Potential energy [hartree]         -0.105996235657E+04  -0.105996235657E+04
 MD| Total kinetic energy [hartree]      0.218500929400E+03   0.218500929400E+03
 MD| QM kinetic energy [hartree]         0.121347274753E+00   0.121347274753E+00
 MD| Total temperature [K]                       273.925013           273.925013
 MD| QM temperature [K]                          375.670519           375.670519
 MD| ***************************************************************************

  Translating the system in order to center the QM fragment in the QM box.

 Number of electrons:                                                        180
 Number of occupied orbitals:                                                 90
 Number of molecular orbitals:                                                90

 Number of orbital functions:                                               1067
 Number of independent orbital functions:                                   1067

 Extrapolation method: ASPC


 SCF WAVEFUNCTION OPTIMIZATION

  ----------------------------------- OT ---------------------------------------
  Minimizer      : DIIS                : direct inversion
                                         in the iterative subspace
                                         using   7 DIIS vectors
                                         safer DIIS on
  Preconditioner : FULL_ALL            : diagonalization, state selective
  Precond_solver : DEFAULT
  stepsize       :    0.15000000                  energy_gap     :    0.08000000
  eps_taylor     :   0.10000E-15                  max_taylor     :             4
  ----------------------------------- OT ---------------------------------------

  Step     Update method      Time    Convergence         Total energy    Change
  ------------------------------------------------------------------------------
  Decoupling Energy:                                               0.0370781907
  Recoupling Energy:                                              -0.0063743357
     1 OT DIIS     0.15E+00   16.4     0.00029256      -255.3622519709 -2.55E+02
  Decoupling Energy:                                               0.0370714460
  Recoupling Energy:                                              -0.0063742686
     2 OT DIIS     0.15E+00    3.7     0.00012380      -255.3630877907 -8.36E-04
  Decoupling Energy:                                               0.0370747176
  Recoupling Energy:                                              -0.0063743003
     3 OT DIIS     0.15E+00    3.7     0.00005679      -255.3632551206 -1.67E-04
  Decoupling Energy:                                               0.0370720752
  Recoupling Energy:                                              -0.0063742776
     4 OT DIIS     0.15E+00    3.7     0.00001757      -255.3632739134 -1.88E-05
  Decoupling Energy:                                               0.0370725460
  Recoupling Energy:                                              -0.0063742816
     5 OT DIIS     0.15E+00    3.7     0.00000682      -255.3632754403 -1.53E-06
  Decoupling Energy:                                               0.0370729631
  Recoupling Energy:                                              -0.0063742866
     6 OT DIIS     0.15E+00    3.7     0.00000313      -255.3632756980 -2.58E-07
  Decoupling Energy:                                               0.0370729479
  Recoupling Energy:                                              -0.0063742865
     7 OT DIIS     0.15E+00    3.7     0.00000105      -255.3632757590 -6.10E-08
  Decoupling Energy:                                               0.0370730058
  Recoupling Energy:                                              -0.0063742872
     8 OT DIIS     0.15E+00    3.7     0.00000048      -255.3632757691 -1.02E-08

  *** SCF run converged in     8 steps ***


  Electronic density on regular grids:       -180.0000000000       -0.0000000000
  Core density on regular grids:              180.9999999999       -0.0000000001
  Total charge density on r-space grids:        0.9999999998
  Total charge density g-space grids:           0.9999999998

  Overlap energy of the core charge distribution:               0.00005088940243
  Self energy of the core charge distribution:               -615.71576003586028
  Core Hamiltonian energy:                                    191.44418964295267
  Hartree energy:                                             247.94136349430602
  Exchange-correlation energy:                                -61.47332475787314
  Hartree-Fock Exchange energy:                               -18.13880634186808
  QM/MM Electrostatic energy:                                   0.57901133979085

  Total energy:                                              -255.36327576914948

  outer SCF iter =    1 RMS gradient =   0.48E-06 energy =       -255.3632757691
  outer SCF loop converged in   1 iterations or    8 steps

  Decoupling Energy:                                               0.0370730225
  Recoupling Energy:                                              -0.0063742875

 ENERGY| Total FORCE_EVAL ( QMMM ) energy [a.u.]:          -1061.235329129528736

 MD| ***************************************************************************
 MD| Step number                                                               2
 MD| Time [fs]                                                          2.000000
 MD| Conserved quantity [hartree]                            -0.842817774593E+03
 MD| ---------------------------------------------------------------------------
 MD|                                          Instantaneous             Averages
 MD| CPU time per MD step [s]                    129.843590           203.541804
 MD| Energy drift per atom [K]           0.112696745470E+02   0.563483727349E+01
 MD| Potential energy [hartree]         -0.106123532913E+04  -0.106059884285E+04
 MD| Total kinetic energy [hartree]      0.218417554537E+03   0.218459241968E+03
 MD| QM kinetic energy [hartree]         0.111578013709E+00   0.116462644231E+00
 MD| Total temperature [K]                       273.820490           273.872751
 MD| QM temperature [K]                          345.426549           360.548534
 MD| ***************************************************************************

  Translating the system in order to center the QM fragment in the QM box.

 Number of electrons:                                                        180
 Number of occupied orbitals:                                                 90
 Number of molecular orbitals:                                                90

 Number of orbital functions:                                               1067
 Number of independent orbital functions:                                   1067

 Extrapolation method: ASPC


 SCF WAVEFUNCTION OPTIMIZATION

  ----------------------------------- OT ---------------------------------------
  Minimizer      : DIIS                : direct inversion
                                         in the iterative subspace
                                         using   7 DIIS vectors
                                         safer DIIS on
  Preconditioner : FULL_ALL            : diagonalization, state selective
  Precond_solver : DEFAULT
  stepsize       :    0.15000000                  energy_gap     :    0.08000000
  eps_taylor     :   0.10000E-15                  max_taylor     :             4
  ----------------------------------- OT ---------------------------------------

  Step     Update method      Time    Convergence         Total energy    Change
  ------------------------------------------------------------------------------
  Decoupling Energy:                                               0.0371231568
  Recoupling Energy:                                              -0.0063748342
     1 OT DIIS     0.15E+00   16.4     0.00057307      -254.8840269557 -2.55E+02
  Decoupling Energy:                                               0.0371263951
  Recoupling Energy:                                              -0.0063748789
     2 OT DIIS     0.15E+00    3.7     0.00022564      -254.8871523098 -3.13E-03
  Decoupling Energy:                                               0.0371270974
  Recoupling Energy:                                              -0.0063748847
     3 OT DIIS     0.15E+00    3.7     0.00008224      -254.8877075805 -5.55E-04
  Decoupling Energy:                                               0.0371223297
  Recoupling Energy:                                              -0.0063748373
     4 OT DIIS     0.15E+00    3.7     0.00002748      -254.8877577831 -5.02E-05
  Decoupling Energy:                                               0.0371233295
  Recoupling Energy:                                              -0.0063748480
     5 OT DIIS     0.15E+00    3.7     0.00001035      -254.8877615786 -3.80E-06
  Decoupling Energy:                                               0.0371231655
  Recoupling Energy:                                              -0.0063748451
     6 OT DIIS     0.15E+00    3.7     0.00000438      -254.8877621627 -5.84E-07
  Decoupling Energy:                                               0.0371230886
  Recoupling Energy:                                              -0.0063748447
     7 OT DIIS     0.15E+00    3.8     0.00000136      -254.8877622525 -8.98E-08
  Decoupling Energy:                                               0.0371230912
  Recoupling Energy:                                              -0.0063748447
     8 OT DIIS     0.15E+00    3.7     0.00000059      -254.8877622633 -1.08E-08

  *** SCF run converged in     8 steps ***


  Electronic density on regular grids:       -180.0000000003       -0.0000000003
  Core density on regular grids:              180.9999999999       -0.0000000001
  Total charge density on r-space grids:        0.9999999996
  Total charge density g-space grids:           0.9999999996

  Overlap energy of the core charge distribution:               0.00005124536734
  Self energy of the core charge distribution:               -615.71576003586028
  Core Hamiltonian energy:                                    191.49125128190744
  Hartree energy:                                             247.90728785176458
  Exchange-correlation energy:                                -61.48094641802752
  Hartree-Fock Exchange energy:                               -18.14140206660727
  QM/MM Electrostatic energy:                                   1.05175587814682

  Total energy:                                              -254.88776226330887

  outer SCF iter =    1 RMS gradient =   0.59E-06 energy =       -254.8877622633
  outer SCF loop converged in   1 iterations or    8 steps

  Decoupling Energy:                                               0.0371230907
  Recoupling Energy:                                              -0.0063748447

 ENERGY| Total FORCE_EVAL ( QMMM ) energy [a.u.]:          -1082.045340765395622

 MD| ***************************************************************************
 MD| Step number                                                               3
 MD| Time [fs]                                                          3.000000
 MD| Conserved quantity [hartree]                            -0.846392350777E+03
 MD| ---------------------------------------------------------------------------
 MD|                                          Instantaneous             Averages
 MD| CPU time per MD step [s]                    130.883124           179.322244
 MD| Energy drift per atom [K]           0.454778096521E+01   0.527248517073E+01
 MD| Potential energy [hartree]         -0.108204534077E+04  -0.106774767549E+04
 MD| Total kinetic energy [hartree]      0.235652989989E+03   0.224190491308E+03
 MD| QM kinetic energy [hartree]         0.117355785743E+00   0.116760358068E+00
 MD| Total temperature [K]                       295.427798           281.057767
 MD| QM temperature [K]                          363.313548           361.470205
 MD| ***************************************************************************

  Translating the system in order to center the QM fragment in the QM box.

 Number of electrons:                                                        180
 Number of occupied orbitals:                                                 90
 Number of molecular orbitals:                                                90

 Number of orbital functions:                                               1067
 Number of independent orbital functions:                                   1067

 Extrapolation method: ASPC


 SCF WAVEFUNCTION OPTIMIZATION

  ----------------------------------- OT ---------------------------------------
  Minimizer      : DIIS                : direct inversion
                                         in the iterative subspace
                                         using   7 DIIS vectors
                                         safer DIIS on
  Preconditioner : FULL_ALL            : diagonalization, state selective
  Precond_solver : DEFAULT
  stepsize       :    0.15000000                  energy_gap     :    0.08000000
  eps_taylor     :   0.10000E-15                  max_taylor     :             4
  ----------------------------------- OT ---------------------------------------

  Step     Update method      Time    Convergence         Total energy    Change
  ------------------------------------------------------------------------------
  Decoupling Energy:                                               0.0371654340
  Recoupling Energy:                                              -0.0063753275
     1 OT DIIS     0.15E+00   16.5     0.00026688      -254.3372997818 -2.54E+02
  Decoupling Energy:                                               0.0371743198
  Recoupling Energy:                                              -0.0063754107
     2 OT DIIS     0.15E+00    3.7     0.00010707      -254.3379917803 -6.92E-04
  Decoupling Energy:                                               0.0371690322
  Recoupling Energy:                                              -0.0063753559
     3 OT DIIS     0.15E+00    3.7     0.00004019      -254.3381202518 -1.28E-04
  Decoupling Energy:                                               0.0371715061
  Recoupling Energy:                                              -0.0063753817
     4 OT DIIS     0.15E+00    3.8     0.00001288      -254.3381301773 -9.93E-06
  Decoupling Energy:                                               0.0371702590
  Recoupling Energy:                                              -0.0063753693
     5 OT DIIS     0.15E+00    3.7     0.00000551      -254.3381310281 -8.51E-07
  Decoupling Energy:                                               0.0371705159
  Recoupling Energy:                                              -0.0063753713
     6 OT DIIS     0.15E+00    3.7     0.00000190      -254.3381311707 -1.43E-07
  Decoupling Energy:                                               0.0371705452
  Recoupling Energy:                                              -0.0063753718
     7 OT DIIS     0.15E+00    3.7     0.00000064      -254.3381311898 -1.90E-08

  *** SCF run converged in     7 steps ***


  Electronic density on regular grids:       -179.9999999999        0.0000000001
  Core density on regular grids:              180.9999999999       -0.0000000001
  Total charge density on r-space grids:        1.0000000000
  Total charge density g-space grids:           1.0000000000

  Overlap energy of the core charge distribution:               0.00002358485126
  Self energy of the core charge distribution:               -615.71576003586028
  Core Hamiltonian energy:                                    191.34734296568536
  Hartree energy:                                             247.97608329003094
  Exchange-correlation energy:                                -61.44937215876252
  Hartree-Fock Exchange energy:                               -18.13041953150119
  QM/MM Electrostatic energy:                                   1.63397069580501

  Total energy:                                              -254.33813118975138

  outer SCF iter =    1 RMS gradient =   0.64E-06 energy =       -254.3381311898
  outer SCF loop converged in   1 iterations or    7 steps

  Decoupling Energy:                                               0.0371704674
  Recoupling Energy:                                              -0.0063753710

 ENERGY| Total FORCE_EVAL ( QMMM ) energy [a.u.]:          -1079.714053276378991

 MD| ***************************************************************************
 MD| Step number                                                               4
 MD| Time [fs]                                                          4.000000
 MD| Conserved quantity [hartree]                            -0.842113597069E+03
 MD| ---------------------------------------------------------------------------
 MD|                                          Instantaneous             Averages
 MD| CPU time per MD step [s]                    126.361816           166.082137
 MD| Energy drift per atom [K]           0.125938612859E+02   0.710282919952E+01
 MD| Potential energy [hartree]         -0.107971405328E+04  -0.107073926994E+04
 MD| Total kinetic energy [hartree]      0.237600456208E+03   0.227542982533E+03
 MD| QM kinetic energy [hartree]         0.148328112186E+00   0.124652296598E+00
 MD| Total temperature [K]                       297.869250           285.260638
 MD| QM temperature [K]                          459.198602           385.902305
 MD| ***************************************************************************

  Translating the system in order to center the QM fragment in the QM box.

 Number of electrons:                                                        180
 Number of occupied orbitals:                                                 90
 Number of molecular orbitals:                                                90

 Number of orbital functions:                                               1067
 Number of independent orbital functions:                                   1067

 Extrapolation method: ASPC


 SCF WAVEFUNCTION OPTIMIZATION

  ----------------------------------- OT ---------------------------------------
  Minimizer      : DIIS                : direct inversion
                                         in the iterative subspace
                                         using   7 DIIS vectors
                                         safer DIIS on
  Preconditioner : FULL_ALL            : diagonalization, state selective
  Precond_solver : DEFAULT
  stepsize       :    0.15000000                  energy_gap     :    0.08000000
  eps_taylor     :   0.10000E-15                  max_taylor     :             4
  ----------------------------------- OT ---------------------------------------

  Step     Update method      Time    Convergence         Total energy    Change
  ------------------------------------------------------------------------------
  Decoupling Energy:                                               0.0372102552
  Recoupling Energy:                                              -0.0063758458
     1 OT DIIS     0.15E+00   16.6     0.00032076      -253.7449360887 -2.54E+02
  Decoupling Energy:                                               0.0372070155
  Recoupling Energy:                                              -0.0063757999
     2 OT DIIS     0.15E+00    3.7     0.00013139      -253.7458493866 -9.13E-04
  Decoupling Energy:                                               0.0372094771
  Recoupling Energy:                                              -0.0063758227
     3 OT DIIS     0.15E+00    3.8     0.00006249      -253.7460071452 -1.58E-04
  Decoupling Energy:                                               0.0372087455
  Recoupling Energy:                                              -0.0063758147
     4 OT DIIS     0.15E+00    3.8     0.00002481      -253.7460382046 -3.11E-05
  Decoupling Energy:                                               0.0372096138
  Recoupling Energy:                                              -0.0063758219
     5 OT DIIS     0.15E+00    3.7     0.00000535      -253.7460408143 -2.61E-06
  Decoupling Energy:                                               0.0372093120
  Recoupling Energy:                                              -0.0063758194
     6 OT DIIS     0.15E+00    3.7     0.00000255      -253.7460409610 -1.47E-07
  Decoupling Energy:                                               0.0372092972
  Recoupling Energy:                                              -0.0063758191
     7 OT DIIS     0.15E+00    3.8     0.00000088      -253.7460409941 -3.31E-08

  *** SCF run converged in     7 steps ***


  Electronic density on regular grids:       -180.0000000000       -0.0000000000
  Core density on regular grids:              180.9999999999       -0.0000000001
  Total charge density on r-space grids:        0.9999999998
  Total charge density g-space grids:           0.9999999998

  Overlap energy of the core charge distribution:               0.00001841798076
  Self energy of the core charge distribution:               -615.71576003586028
  Core Hamiltonian energy:                                    191.22474971180566
  Hartree energy:                                             248.04794614239825
  Exchange-correlation energy:                                -61.41799159803296
  Hartree-Fock Exchange energy:                               -18.11952304072196
  QM/MM Electrostatic energy:                                   2.23451940830936

  Total energy:                                              -253.74604099412119

  outer SCF iter =    1 RMS gradient =   0.88E-06 energy =       -253.7460409941
  outer SCF loop converged in   1 iterations or    7 steps

  Decoupling Energy:                                               0.0372093300
  Recoupling Energy:                                              -0.0063758194

 ENERGY| Total FORCE_EVAL ( QMMM ) energy [a.u.]:          -1094.307011234172023

 MD| ***************************************************************************
 MD| Step number                                                               5
 MD| Time [fs]                                                          5.000000
 MD| Conserved quantity [hartree]                            -0.848389416193E+03
 MD| ---------------------------------------------------------------------------
 MD|                                          Instantaneous             Averages
 MD| CPU time per MD step [s]                    127.299679           158.325646
 MD| Energy drift per atom [K]           0.792353605102E+00   0.584073408064E+01
 MD| Potential energy [hartree]         -0.109430701123E+04  -0.107545281820E+04
 MD| Total kinetic energy [hartree]      0.245917595041E+03   0.231217905035E+03
 MD| QM kinetic energy [hartree]         0.157564862482E+00   0.131234809775E+00
 MD| Total temperature [K]                       308.296082           289.867726
 MD| QM temperature [K]                          487.794010           406.280646
 MD| ***************************************************************************

  Translating the system in order to center the QM fragment in the QM box.

 Number of electrons:                                                        180
 Number of occupied orbitals:                                                 90
 Number of molecular orbitals:                                                90

 Number of orbital functions:                                               1067
 Number of independent orbital functions:                                   1067

 Extrapolation method: ASPC


 SCF WAVEFUNCTION OPTIMIZATION

  ----------------------------------- OT ---------------------------------------
  Minimizer      : DIIS                : direct inversion
                                         in the iterative subspace
                                         using   7 DIIS vectors
                                         safer DIIS on
  Preconditioner : FULL_ALL            : diagonalization, state selective
  Precond_solver : DEFAULT
  stepsize       :    0.15000000                  energy_gap     :    0.08000000
  eps_taylor     :   0.10000E-15                  max_taylor     :             4
  ----------------------------------- OT ---------------------------------------

  Step     Update method      Time    Convergence         Total energy    Change
  ------------------------------------------------------------------------------
  Decoupling Energy:                                               0.0372440317
  Recoupling Energy:                                              -0.0063762172
     1 OT DIIS     0.15E+00   16.5     0.00048885      -253.1925252140 -2.53E+02
  Decoupling Energy:                                               0.0372421331
  Recoupling Energy:                                              -0.0063762284
     2 OT DIIS     0.15E+00    3.7     0.00019187      -253.1946663502 -2.14E-03
  Decoupling Energy:                                               0.0372395763
  Recoupling Energy:                                              -0.0063761942
     3 OT DIIS     0.15E+00    3.8     0.00008082      -253.1950220618 -3.56E-04
  Decoupling Energy:                                               0.0372399053
  Recoupling Energy:                                              -0.0063761989
     4 OT DIIS     0.15E+00    3.7     0.00002302      -253.1950808825 -5.88E-05
  Decoupling Energy:                                               0.0372387780
  Recoupling Energy:                                              -0.0063761869
     5 OT DIIS     0.15E+00    3.7     0.00000866      -253.1950835245 -2.64E-06
  Decoupling Energy:                                               0.0372394639
  Recoupling Energy:                                              -0.0063761926
     6 OT DIIS     0.15E+00    3.7     0.00000300      -253.1950838979 -3.73E-07
  Decoupling Energy:                                               0.0372392328
  Recoupling Energy:                                              -0.0063761905
     7 OT DIIS     0.15E+00    3.8     0.00000088      -253.1950839416 -4.37E-08

  *** SCF run converged in     7 steps ***


  Electronic density on regular grids:       -180.0000000000       -0.0000000000
  Core density on regular grids:              180.9999999999       -0.0000000001
  Total charge density on r-space grids:        0.9999999998
  Total charge density g-space grids:           0.9999999998

  Overlap energy of the core charge distribution:               0.00001843292808
  Self energy of the core charge distribution:               -615.71576003586028
  Core Hamiltonian energy:                                    191.21897417367120
  Hartree energy:                                             248.05851532065731
  Exchange-correlation energy:                                -61.40903221953083
  Hartree-Fock Exchange energy:                               -18.11645519032091
  QM/MM Electrostatic energy:                                   2.76865557688286

  Total energy:                                              -253.19508394157262

  outer SCF iter =    1 RMS gradient =   0.88E-06 energy =       -253.1950839416
  outer SCF loop converged in   1 iterations or    7 steps

  Decoupling Energy:                                               0.0372392109
  Recoupling Energy:                                              -0.0063761902

 ENERGY| Total FORCE_EVAL ( QMMM ) energy [a.u.]:          -1057.339965317628184

 MD| ***************************************************************************
 MD| Step number                                                               6
 MD| Time [fs]                                                          6.000000
 MD| Conserved quantity [hartree]                            -0.842900324921E+03
 MD| ---------------------------------------------------------------------------
 MD|                                          Instantaneous             Averages
 MD| CPU time per MD step [s]                    126.470166           153.016399
 MD| Energy drift per atom [K]           0.111144408928E+02   0.671968521600E+01
 MD| Potential energy [hartree]         -0.105733996532E+04  -0.107243400938E+04
 MD| Total kinetic energy [hartree]      0.214439640396E+03   0.228421527595E+03
 MD| QM kinetic energy [hartree]         0.141132066561E+00   0.132884352572E+00
 MD| Total temperature [K]                       268.833553           286.362031
 MD| QM temperature [K]                          436.920869           411.387349
 MD| ***************************************************************************

 -------------------------------------------------------------------------------
 -                                                                             -
 -                                DBCSR STATISTICS                             -
 -                                                                             -
 -------------------------------------------------------------------------------
 COUNTER                                    TOTAL       BLAS       SMM       ACC
 flops     9 x    26 x    26              2810808     100.0%      0.0%      0.0%
 flops    22 x    26 x    26              7287280     100.0%      0.0%      0.0%
 flops     9 x    32 x    32              8515584     100.0%      0.0%      0.0%
 flops    26 x    26 x    26             13709280     100.0%      0.0%      0.0%
 flops    22 x    32 x    32             22077440     100.0%      0.0%      0.0%
 flops    26 x    26 x    32             33745920     100.0%      0.0%      0.0%
 flops    26 x    32 x    26             33745920     100.0%      0.0%      0.0%
 flops    32 x    26 x    26             33745920     100.0%      0.0%      0.0%
 flops    93 x    26 x    26             35206080     100.0%      0.0%      0.0%
 flops   106 x    26 x    26             40127360     100.0%      0.0%      0.0%
 flops   115 x    26 x    26             43534400     100.0%      0.0%      0.0%
 flops   124 x    26 x    26             46941440     100.0%      0.0%      0.0%
 flops   142 x    26 x    26             53755520     100.0%      0.0%      0.0%
 flops   177 x    26 x    26             67005120     100.0%      0.0%      0.0%
 flops    32 x    32 x    26             83066880     100.0%      0.0%      0.0%
 flops    26 x    32 x    32             83066880     100.0%      0.0%      0.0%
 flops    32 x    26 x    32             83066880     100.0%      0.0%      0.0%
 flops    26 x    26 x   133             83074992     100.0%      0.0%      0.0%
 flops    93 x    26 x    32             86661120     100.0%      0.0%      0.0%
 flops    93 x    32 x    26             86661120     100.0%      0.0%      0.0%
 flops    26 x    26 x   146             91195104     100.0%      0.0%      0.0%
 flops   106 x    26 x    32             98775040     100.0%      0.0%      0.0%
 flops   106 x    32 x    26             98775040     100.0%      0.0%      0.0%
 flops   115 x    26 x    32            107161600     100.0%      0.0%      0.0%
 flops   115 x    32 x    26            107161600     100.0%      0.0%      0.0%
 flops   124 x    32 x    26            115548160     100.0%      0.0%      0.0%
 flops   124 x    26 x    32            115548160     100.0%      0.0%      0.0%
 flops    26 x    26 x   124            116180064     100.0%      0.0%      0.0%
 flops   155 x    26 x    26            117353600     100.0%      0.0%      0.0%
 flops   142 x    32 x    26            132321280     100.0%      0.0%      0.0%
 flops   142 x    26 x    32            132321280     100.0%      0.0%      0.0%
 flops    93 x    26 x   133            162083376     100.0%      0.0%      0.0%
 flops   177 x    26 x    32            164935680     100.0%      0.0%      0.0%
 flops   177 x    32 x    26            164935680     100.0%      0.0%      0.0%
 flops     9 x     9 x    26            165405240     100.0%      0.0%      0.0%
 flops    93 x    26 x   146            177926112     100.0%      0.0%      0.0%
 flops   106 x    26 x   133            184740192     100.0%      0.0%      0.0%
 flops   115 x    26 x   133            200425680     100.0%      0.0%      0.0%
 flops   106 x    26 x   146            202797504     100.0%      0.0%      0.0%
 flops    32 x    32 x    32            204472320     100.0%      0.0%      0.0%
 flops    26 x    32 x   133            204492288     100.0%      0.0%      0.0%
 flops    32 x    26 x   133            204492288     100.0%      0.0%      0.0%
 flops    93 x    32 x    32            213319680     100.0%      0.0%      0.0%
 flops   124 x    26 x   133            216111168     100.0%      0.0%      0.0%
 flops   115 x    26 x   146            220016160     100.0%      0.0%      0.0%
 flops    26 x    32 x   146            224480256     100.0%      0.0%      0.0%
 flops    32 x    26 x   146            224480256     100.0%      0.0%      0.0%
 flops    93 x    26 x   124            226672992     100.0%      0.0%      0.0%
 flops   124 x    26 x   146            237234816     100.0%      0.0%      0.0%
 flops   106 x    32 x    32            243138560     100.0%      0.0%      0.0%
 flops   142 x    26 x   133            247482144     100.0%      0.0%      0.0%
 flops   106 x    26 x   124            258358464     100.0%      0.0%      0.0%
 flops   115 x    32 x    32            263782400     100.0%      0.0%      0.0%
 flops   142 x    26 x   146            271672128     100.0%      0.0%      0.0%
 flops   115 x    26 x   124            280294560     100.0%      0.0%      0.0%
 flops   124 x    32 x    32            284426240     100.0%      0.0%      0.0%
 flops    26 x    32 x   124            285981696     100.0%      0.0%      0.0%
 flops    32 x    26 x   124            285981696     100.0%      0.0%      0.0%
 flops   155 x    26 x    32            288870400     100.0%      0.0%      0.0%
 flops   155 x    32 x    26            288870400     100.0%      0.0%      0.0%
 flops   124 x    26 x   124            302230656     100.0%      0.0%      0.0%
 flops   177 x    26 x   133            308481264     100.0%      0.0%      0.0%
 flops   142 x    32 x    32            325713920     100.0%      0.0%      0.0%
 flops   177 x    26 x   146            338633568     100.0%      0.0%      0.0%
 flops   142 x    26 x   124            346102848     100.0%      0.0%      0.0%
 flops    93 x    32 x   133            398974464     100.0%      0.0%      0.0%
 flops   177 x    32 x    32            405995520     100.0%      0.0%      0.0%
 flops     9 x     9 x    32            407151360     100.0%      0.0%      0.0%
 flops    22 x     9 x    26            415855440     100.0%      0.0%      0.0%
 flops     9 x    22 x    26            416576160     100.0%      0.0%      0.0%
 flops   177 x    26 x   124            431409888     100.0%      0.0%      0.0%
 flops    93 x    32 x   146            437971968     100.0%      0.0%      0.0%
 flops   106 x    32 x   133            454745088     100.0%      0.0%      0.0%
 flops   115 x    32 x   133            493355520     100.0%      0.0%      0.0%
 flops   106 x    32 x   146            499193856     100.0%      0.0%      0.0%
 flops    32 x    32 x   133            503365632     100.0%      0.0%      0.0%
 flops   124 x    32 x   133            531965952     100.0%      0.0%      0.0%
 flops   155 x    26 x   133            540277920     100.0%      0.0%      0.0%
 flops   115 x    32 x   146            541578240     100.0%      0.0%      0.0%
 flops    32 x    32 x   146            552566784     100.0%      0.0%      0.0%
 flops    93 x    32 x   124            557964288     100.0%      0.0%      0.0%
 flops   124 x    32 x   146            583962624     100.0%      0.0%      0.0%
 flops   155 x    26 x   146            593087040     100.0%      0.0%      0.0%
 flops   142 x    32 x   133            609186816     100.0%      0.0%      0.0%
 flops   106 x    32 x   124            635959296     100.0%      0.0%      0.0%
 flops   142 x    32 x   146            668731392     100.0%      0.0%      0.0%
 flops   115 x    32 x   124            689955840     100.0%      0.0%      0.0%
 flops    32 x    32 x   124            703954944     100.0%      0.0%      0.0%
 flops   155 x    32 x    32            711065600     100.0%      0.0%      0.0%
 flops   124 x    32 x   124            743952384     100.0%      0.0%      0.0%
 flops   155 x    26 x   124            755576640     100.0%      0.0%      0.0%
 flops   177 x    32 x   133            759338496     100.0%      0.0%      0.0%
 flops     9 x    26 x     9            802701900     100.0%      0.0%      0.0%
 flops   177 x    32 x   146            833559552     100.0%      0.0%      0.0%
 flops   142 x    32 x   124            851945472     100.0%      0.0%      0.0%
 flops    22 x     9 x    32           1023644160     100.0%      0.0%      0.0%
 flops     9 x    22 x    32           1025418240     100.0%      0.0%      0.0%
 flops   177 x    32 x   124           1061932032     100.0%      0.0%      0.0%
 flops    22 x    22 x    26           1109908800     100.0%      0.0%      0.0%
 flops   155 x    32 x   133           1329914880     100.0%      0.0%      0.0%
 flops   155 x    32 x   146           1459906560     100.0%      0.0%      0.0%
 flops   155 x    32 x   124           1859880960     100.0%      0.0%      0.0%
 flops     9 x    32 x     9           1975881600     100.0%      0.0%      0.0%
 flops     9 x    26 x    22           2081079000     100.0%      0.0%      0.0%
 flops    22 x    26 x     9           2081079000     100.0%      0.0%      0.0%
 flops    22 x    22 x    32           2732083200     100.0%      0.0%      0.0%
 flops    22 x    32 x     9           5122656000     100.0%      0.0%      0.0%
 flops     9 x    32 x    22           5122656000     100.0%      0.0%      0.0%
 flops    22 x    26 x    22           5395390000     100.0%      0.0%      0.0%
 flops    22 x    32 x    22          13280960000     100.0%      0.0%      0.0%
 flops inhomo. stacks                  4711951440     100.0%      0.0%      0.0%
 flops total                        79.305457E+09     100.0%      0.0%      0.0%
 flops max/rank                      6.914430E+09     100.0%      0.0%      0.0%
 matmuls inhomo. stacks                      5103     100.0%      0.0%      0.0%
 matmuls total                            2993202     100.0%      0.0%      0.0%
 number of processed stacks                259590     100.0%      0.0%      0.0%
 average stack size                                    11.5       0.0       0.0
 marketing flops                    85.671830E+09
 -------------------------------------------------------------------------------
 # multiplications                           1286
 max memory usage/rank               2.650333E+09
 # max total images/rank                        2
 # max 3D layers                                1
 # MPI messages exchanged                  534976
 MPI messages size (bytes):
  total size                        24.047462E+09
  min size                           0.000000E+00
  max size                         315.360000E+03
  average size                      44.950543E+03
 MPI breakdown and total messages size (bytes):
             size <=      128              312689                        0
       128 < size <=     8192               42723                307609632
      8192 < size <=    32768               47082               1385410320
     32768 < size <=   131072               65058               3164106960
    131072 < size <=  4194304               67424              19190370584
   4194304 < size <= 16777216                   0                        0
  16777216 < size                               0                        0
 -------------------------------------------------------------------------------

 *** WARNING in dbcsr_mm.F:294 :: Using a non-square number of MPI ranks ***
 *** might lead to poor performance. Used ranks: 32 Suggested: 36 64     ***

 -------------------------------------------------------------------------------
 -                                                                             -
 -                      DBCSR MESSAGE PASSING PERFORMANCE                      -
 -                                                                             -
 -------------------------------------------------------------------------------
 ROUTINE             CALLS      AVE VOLUME [Bytes]
 MP_Bcast              111                     12.
 MP_Allreduce         6970                      9.
 MP_Alltoall          5344                  14385.
 MP_ISend            39756                  23564.
 MP_IRecv            39294                  22596.
 -------------------------------------------------------------------------------

 -------------------------------------------------------------------------------
 -                                                                             -
 -                                GRID STATISTICS                              -
 -                                                                             -
 -------------------------------------------------------------------------------
 LP    KERNEL             BACKEND                              COUNT     PERCENT
 2     collocate ortho    REF                                1126269      19.15%
 2     integrate ortho    REF                                1106014      18.80%
 1     collocate ortho    REF                                 943978      16.05%
 1     integrate ortho    REF                                 870340      14.80%
 3     integrate ortho    REF                                 570062       9.69%
 3     collocate ortho    REF                                 500530       8.51%
 0     collocate ortho    REF                                 281245       4.78%
 0     integrate ortho    REF                                 249988       4.25%
 4     integrate ortho    REF                                 121240       2.06%
 4     collocate ortho    REF                                  73823       1.26%
 0     collocate general  REF                                  15232       0.26%
 1     integrate general  REF                                  15232       0.26%
 5     integrate ortho    REF                                   8201       0.14%
 -------------------------------------------------------------------------------

 MEMORY| Estimated peak process memory [MiB]                                2597

 -------------------------------------------------------------------------------
 -                                                                             -
 -                         MESSAGE PASSING PERFORMANCE                         -
 -                                                                             -
 -------------------------------------------------------------------------------

 ROUTINE             CALLS      AVE VOLUME [Bytes]
 MP_Group                8
 MP_Bcast             6942               10565475.
 MP_Allreduce         2477                1659268.
 MP_Sync               437
 MP_Alltoall          1344               35661819.
 MP_ISendRecv        12803                 111406.
 MP_Wait             20454
 MP_comm_split          21
 MP_ISend             6475                 861828.
 MP_IRecv             6468                 861818.
 MP_Recv                49                 102432.
 -------------------------------------------------------------------------------


 -------------------------------------------------------------------------------
 -                                                                             -
 -                           R E F E R E N C E S                               -
 -                                                                             -
 -------------------------------------------------------------------------------
 
 CP2K version 8.2, the CP2K developers group (2021).
 CP2K is freely available from https://www.cp2k.org/ .

 Kuehne,Thomas D.; Iannuzzi,Marcella; Del Ben,Mauro;
 Rybkin,Vladimir V.; Seewald,Patrick; Stein,Frederick; Laino,Teodoro;
 Khaliullin,Rustam Z.; Schuett,Ole; Schiffmann,Florian; Golze,Dorothea;
 Wilhelm,Jan; Chulkov,Sergey; Bani-Hashemian,Mohammad Hossein;
 Weber,Valery; Borstnik,Urban; Taillefumier,Mathieu;
 Jakobovits,Alice Shoshana; Lazzaro,Alfio; Pabst,Hans; Mueller,Tiziano;
 Schade,Robert; Guidon,Manuel; Andermatt,Samuel; Holmberg,Nico;
 Schenter,Gregory K.; Hehn,Anna; Bussy,Augustin; Belleflamme,Fabian;
 Tabacchi,Gloria; Gloess,Andreas; Lass,Michael; Bethune,Iain;
 Mundy,Christopher J.; Plessl,Christian; Watkins,Matt;
 VandeVondele,Joost; Krack,Matthias; Hutter,Juerg. 
 The Journal of Chemical Physics, 152 (19), (2020). 
 CP2K: An electronic structure and molecular dynamics software package -
 Quickstep: Efficient and accurate electronic structure calculations.
 https://doi.org/10.1063/5.0007045

 Schuett, Ole; Messmer, Peter; Hutter, Juerg; VandeVondele, Joost. 
 Electronic Structure Calculations on Graphics Processing Units, John
 Wiley & Sons, Ltd, 173-190 (2016). 
 GPU-Accelerated Sparse Matrix-Matrix Multiplication for
 Linear Scaling Density Functional Theory.
 https://doi.org/10.1002/9781118670712.ch8

 Borstnik, U; VandeVondele, J; Weber, V; Hutter, J. 
 PARALLEL COMPUTING, 40 (5-6), 47-58 (2014). 
 Sparse matrix multiplication: The distributed block-compressed sparse
 row library.
 https://doi.org/10.1016/j.parco.2014.03.012

 Hutter, J; Iannuzzi, M; Schiffmann, F; VandeVondele, J. 
 WIREs Comput Mol Sci., 4 (1), 15-25 (2014). 
 CP2K: atomistic simulations of condensed matter systems.
 https://doi.org/10.1002/wcms.1159

 Marek, A; Blum, V; Johanni, R; Havu, V; Lang, B; Auckenthaler, T;
 Heinecke, A; Bungartz, H; Lederer, H. 
 Journal of Physics: Condensed Matter, 26 (21), (2014). 
 The ELPA library: scalable parallel eigenvalue solutions for
 electronic structure
 theory and computational science.
 https://doi.org/10.1088/0953-8984/26/21/213201

 Guidon, M; Hutter, J; VandeVondele, J. 
 JOURNAL OF CHEMICAL THEORY AND COMPUTATION, 5 (11), 3010-3021 (2009). 
 Robust Periodic Hartree-Fock Exchange for Large-Scale Simulations Using
 Gaussian Basis Sets.
 https://doi.org/10.1021/ct900494g

 Guidon, M; Schiffmann, F; Hutter, J; VandeVondele, J. 
 JOURNAL OF CHEMICAL PHYSICS, 128 (21), 214104 (2008). 
 Ab initio molecular dynamics using hybrid density functionals.
 https://doi.org/10.1063/1.2931945

 Kuhne, TD; Krack, M; Mohamed, FR; Parrinello, M. 
 PHYSICAL REVIEW LETTERS, 98 (6), 066401 (2007). 
 Efficient and accurate Car-Parrinello-like approach to
 Born-Oppenheimer molecular dynamics.
 https://doi.org/10.1103/PhysRevLett.98.066401

 Laino, T; Mohamed, F; Laio, A; Parrinello, M. 
 JOURNAL OF CHEMICAL THEORY AND COMPUTATION, 2 (5), 1370-1378 (2006). 
 An efficient linear-scaling electrostatic coupling for treating
 periodic boundary conditions in QM/MM simulations.
 https://doi.org/10.1021/ct6001169

 Laino, T; Mohamed, F; Laio, A; Parrinello, M. 
 JOURNAL OF CHEMICAL THEORY AND COMPUTATION, 1 (6), 1176-1184 (2005). 
 An efficient real space multigrid QM/MM electrostatic coupling.
 https://doi.org/10.1021/ct050123f

 Krack, M. 
 THEORETICAL CHEMISTRY ACCOUNTS, 114 (1-3), 145-152 (2005). 
 Pseudopotentials for H to Kr optimized for gradient-corrected
 exchange-correlation functionals.
 https://doi.org/10.1007/s00214-005-0655-y

 VandeVondele, J; Krack, M; Mohamed, F; Parrinello, M; Chassaing, T;
 Hutter, J. COMPUTER PHYSICS COMMUNICATIONS, 167 (2), 103-128 (2005). 
 QUICKSTEP: Fast and accurate density functional calculations using a
 mixed Gaussian and plane waves approach.
 https://doi.org/10.1016/j.cpc.2004.12.014

 Frigo, M; Johnson, SG. 
 PROCEEDINGS OF THE IEEE, 93 (2), 216-231 (2005). 
 The design and implementation of FFTW3.
 https://doi.org/10.1109/JPROC.2004.840301

 Kolafa, J. 
 JOURNAL OF COMPUTATIONAL CHEMISTRY, 25 (3), 335-342 (2004). 
 Time-reversible always stable predictor-corrector method for molecular dynamics of polarizable molecules.
 https://doi.org/10.1002/jcc.10385

 VandeVondele, J; Hutter, J. 
 JOURNAL OF CHEMICAL PHYSICS, 118 (10), 4365-4369 (2003). 
 An efficient orbital transformation method for electronic structure
 calculations.
 https://doi.org/10.1063/1.1543154

 Hartwigsen, C; Goedecker, S; Hutter, J. 
 PHYSICAL REVIEW B, 58 (7), 3641-3662 (1998). 
 Relativistic separable dual-space Gaussian pseudopotentials from H to Rn.
 https://doi.org/10.1103/PhysRevB.58.3641

 Lippert, G; Hutter, J; Parrinello, M. 
 MOLECULAR PHYSICS, 92 (3), 477-487 (1997). 
 A hybrid Gaussian and plane wave density functional scheme.
 https://doi.org/10.1080/002689797170220

 Perdew, JP; Burke, K; Ernzerhof, M. 
 PHYSICAL REVIEW LETTERS, 77 (18), 3865-3868 (1996). 
 Generalized gradient approximation made simple.
 https://doi.org/10.1103/PhysRevLett.77.3865

 Goedecker, S; Teter, M; Hutter, J. 
 PHYSICAL REVIEW B, 54 (3), 1703-1710 (1996). 
 Separable dual-space Gaussian pseudopotentials.
 https://doi.org/10.1103/PhysRevB.54.1703

 ESSMANN, U; PERERA, L; BERKOWITZ, ML; DARDEN, T; LEE, H; PEDERSEN, LG. 
 JOURNAL OF CHEMICAL PHYSICS, 103 (19), 8577-8593 (1995). 
 A SMOOTH PARTICLE MESH EWALD METHOD.
 https://doi.org/10.1063/1.470117

 BLOCHL, PE. 
 JOURNAL OF CHEMICAL PHYSICS, 103 (17), 7422-7428 (1995). 
 ELECTROSTATIC DECOUPLING OF PERIODIC IMAGES OF PLANE-WAVE-EXPANDED
 DENSITIES AND DERIVED ATOMIC POINT CHARGES.
 https://doi.org/10.1063/1.470314


 -------------------------------------------------------------------------------
 -                                                                             -
 -                                T I M I N G                                  -
 -                                                                             -
 -------------------------------------------------------------------------------
 SUBROUTINE                       CALLS  ASD         SELF TIME        TOTAL TIME
                                MAXIMUM       AVERAGE  MAXIMUM  AVERAGE  MAXIMUM
 CP2K                                 1  1.0    0.306    0.322  966.659  966.660
 qs_mol_dyn_low                       1  2.0    0.049    0.053  919.038  920.658
 velocity_verlet                      6  3.0    0.067    0.071  774.408  774.491
 qs_forces                            7  3.9    0.029    0.030  607.426  607.427
 rebuild_ks_matrix                   63  8.5    0.001    0.001  570.426  570.444
 qs_ks_build_kohn_sham_matrix        63  9.5    0.029    0.033  570.425  570.443
 hfx_ks_matrix                       63 10.5    0.004    0.004  464.021  464.032
 qs_energies                          7  4.9    0.019    0.019  312.247  312.248
 scf_env_do_scf                       7  5.9    0.000    0.002  306.186  306.186
 qs_ks_update_qs_env_forces           7  4.9    0.000    0.000  294.905  294.910
 qs_ks_update_qs_env                 63  7.8    0.001    0.007  275.529  275.545
 derivatives_four_center              7  8.9    0.020    0.310  270.791  270.791
 derivatives_four_center_main         7  9.9    0.389    0.838  270.159  270.159
 derivatives_four_center_bin        472 10.9  267.481  269.008  267.481  269.008
 integrate_four_center               63 11.5    3.148    3.694  193.219  193.229
 scf_env_do_scf_inner_loop           56  6.8    0.012    0.014  187.375  187.387
 integrate_four_center_main          63 12.5    0.167    0.343  184.541  185.315
 integrate_four_center_bin         4053 13.5  184.374  185.202  184.374  185.202
 qmmm_forces                          7  3.9    0.060    0.069  173.803  173.809
 qmmm_forces_with_gaussian            7  4.9    2.432    2.455  172.142  172.784
 qmmm_el_coupling                     7  3.9    0.000    0.001  128.410  128.597
 qmmm_elec_with_gaussian              7  4.9    1.855    1.896  128.385  128.575
 qmmm_force_with_gaussian_low         7  5.9    0.000    0.000  123.174  123.571
 init_scf_loop                        7  6.9    0.003    0.003  118.796  118.796
 qmmm_forces_gaussian_low_R           7  6.9    0.000    0.000  103.169  103.485
 qmmm_forces_with_gaussian_LG         7  7.9  103.169  103.485  103.169  103.485
 qmmm_elec_with_gaussian_low          7  5.9    0.000    0.000   87.675   89.146
 pw_transfer                       1337 12.0    0.117    0.131   85.381   88.717
 fft_wrap_pw1pw2                   1113 13.1    0.017    0.024   83.364   86.689
 fft_wrap_pw1pw2_200                707 14.4    9.671   10.148   82.149   85.429
 qmmm_elec_gaussian_low_R             7  6.9    0.000    0.001   73.997   75.521
 qmmm_elec_with_gaussian_LG           7  7.9   73.997   75.521   73.997   75.521
 qs_vxc_create                       63 10.5    0.006    0.006   69.022   69.032
 xc_vxc_pw_create                    63 11.5    1.195    1.638   69.016   69.026
 fft3d_ps                          1113 15.1   35.603   36.646   58.602   62.483
 qmmm_env_create                      1  2.0    8.040    8.136   45.658   45.660
 pw_restrict_s3                      21  5.9    9.288    9.393   40.301   40.590
 pw_integral_ab                    2967  7.5   36.985   37.606   37.233   37.893
 xc_rho_set_and_dset_create          63 12.5    0.576    0.606   31.872   34.440
 fist_init                            1  3.0    0.015    0.037   34.189   34.189
 qs_rho_update_rho                   63  7.9    0.002    0.002   31.625   31.636
 calculate_rho_elec                  63  8.9    0.233    0.245   31.624   31.634
 qmmm_elec_with_gaussian:spline       7  5.9    0.000    0.000   29.801   29.985
 pw_prolongate_s3                    21  6.9    6.862    6.971   29.801   29.985
 density_rs2pw                       63  9.9    0.004    0.004   25.172   27.759
 sum_up_and_integrate                63 10.5    0.310    0.324   20.558   20.581
 rs_pw_transfer                     546 11.8    0.010    0.012   17.834   20.380
 integrate_v_rspace                  63 11.5    0.003    0.003   20.248   20.271
 qmmm_forces_gaussian_low_G           7  6.9   20.005   20.135   20.005   20.135
 -------------------------------------------------------------------------------

 The number of warnings for this run is : 1
 
 -------------------------------------------------------------------------------
  **** **** ******  **  PROGRAM ENDED AT                 2021-08-31 17:33:46.408
 ***** ** ***  *** **   PROGRAM RAN ON                                 nid001734
 **    ****   ******    PROGRAM RAN BY                                     hjbio
 ***** **    ** ** **   PROGRAM PROCESS ID                                 35345
  **** **  *******  **  PROGRAM STOPPED IN /lus/cls01095/work/d118/d118/hjbio/qm
                                           mm-benchmarking/archer2/CPU/cp2kMD/CB
                                           D_PHY-PBE0/6STEPS/1NODES/64CPN/2THREA
                                           DS
