 DBCSR| CPU Multiplication driver                                           BLAS
 DBCSR| Multrec recursion limit                                              512
 DBCSR| Multiplication stack size                                           1000
 DBCSR| Maximum elements for images                                    UNLIMITED
 DBCSR| Multiplicative factor virtual images                                   1
 DBCSR| Use multiplication densification                                       T
 DBCSR| Multiplication size stacks                                             3
 DBCSR| Use memory pool for CPU allocation                                     F
 DBCSR| Number of 3D layers                                               SINGLE
 DBCSR| Use MPI memory allocation                                              F
 DBCSR| Use RMA algorithm                                                      F
 DBCSR| Use Communication thread                                               T
 DBCSR| Communication thread load                                             60
 DBCSR| MPI: My node id                                                        0
 DBCSR| MPI: Number of nodes                                                   8
 DBCSR| OMP: Current number of threads                                         8
 DBCSR| OMP: Max number of threads                                             8
 DBCSR| Split modifier for TAS multiplication algorithm                  1.0E+00


  **** **** ******  **  PROGRAM STARTED AT               2021-08-31 17:38:43.300
 ***** ** ***  *** **   PROGRAM STARTED ON                             nid002001
 **    ****   ******    PROGRAM STARTED BY                                 hjbio
 ***** **    ** ** **   PROGRAM PROCESS ID                                212063
  **** **  *******  **  PROGRAM STARTED IN /lus/cls01095/work/d118/d118/hjbio/qm
                                           mm-benchmarking/archer2/CPU/cp2kMD/CB
                                           D_PHY-PBE0/6STEPS/1NODES/64CPN/8THREA
                                           DS

 CP2K| version string:                                          CP2K version 8.2
 CP2K| source code revision number:                                  git:310b7ab
 CP2K| cp2kflags: omp libint fftw3 libxc elpa parallel mpi3 scalapack plumed2   
 CP2K| is freely available from                            https://www.cp2k.org/
 CP2K| Program compiled at                          Thu 10 Jun 17:43:51 BST 2021
 CP2K| Program compiled on                                                 uan01
 CP2K| Program compiled for                                              ARCHER2
 CP2K| Data directory path              /work/d118/d118/hjbio/CP2K/cp2k-8.2/data
 CP2K| Input file name                                          CBD_PHY-cp2k.inp

 GLOBAL| Force Environment number                                              1
 GLOBAL| Basis set file name                                           HFX_BASIS
 GLOBAL| Potential file name                                           POTENTIAL
 GLOBAL| MM Potential file name                                     MM_POTENTIAL
 GLOBAL| Coordinate file name                                        CBD_PHY.pdb
 GLOBAL| Method name                                                        CP2K
 GLOBAL| Project name                                               CBD_PHY-PBE0
 GLOBAL| Run type                                                             MD
 GLOBAL| FFT library                                                       FFTW3
 GLOBAL| Diagonalization library                                            ELPA
 GLOBAL| Minimum number of eigenvectors for ELPA usage                        16
 GLOBAL| Orthonormality check for eigenvectors                          DISABLED
 GLOBAL| Matrix multiplication library                                    SCALAP
 GLOBAL| All-to-all communication in single precision                          F
 GLOBAL| FFTs using library dependent lengths                                  F
 GLOBAL| Grid backend                                                       AUTO
 GLOBAL| Global print level                                                  LOW
 GLOBAL| MPI I/O enabled                                                       T
 GLOBAL| Total number of message passing processes                             8
 GLOBAL| Number of threads for this process                                    8
 GLOBAL| This output is from process                                           0
 GLOBAL| CPU model name                          AMD EPYC 7742 64-Core Processor
 GLOBAL| CPUID                                                              1002

 MEMORY| system memory details [Kb]
 MEMORY|                        rank 0           min           max       average
 MEMORY| MemTotal            263568576     263568576     263568576     263568576
 MEMORY| MemFree             249862456     249862456     249862456     249862456
 MEMORY| Buffers                282640        282640        282640        282640
 MEMORY| Cached                5184708       5184708       5184708       5184708
 MEMORY| Slab                  1955876       1955876       1955876       1955876
 MEMORY| SReclaimable           221052        221052        221052        221052
 MEMORY| MemLikelyFree       255550856     255550856     255550856     255550856



                      ************* ******** ***********   
                     ************* **********************  
                     ****     **** ****      ***********   
                     ******** ****  *******     ****       
                     *******  ****   *******   ****        
                     ****     ****       ****  ****        
                     ****     **** **********  ****        
                      ****     **** ********    ****       
                     FRONTIERS IN SIMULATION TECHNOLOGY    
                                                           
                        C.J. Mundy, S. Balasubramanian,    
                     Ken Bagchi, J. Hutter, Ari Seitsonen  
                      IFW Kuo, T. Laino, J. VandeVondele   
                                 Version 1.0               

                                                           


 EWALD| Summation is done by:                                               SPME
 EWALD| Alpha parameter [       ANGSTROM^-1]                              0.4000
 EWALD| Real Space Cutoff [          ANGSTROM]                            8.4348
 EWALD| G-space max. Miller index                         80        80        80
 EWALD| Spline interpolation order                                             6

 FORCEFIELD| WARNING: A non Critical ForceField parameter is missing! CP2K GOES!
 FORCEFIELD| Non critical parameters are:Urey-Bradley,Torsions,Impropers, Opbends and 1-4
 FORCEFIELD| All missing parameters will not contribute to the potential energy!
 FORCEFIELD| Activate the print key FF_INFO to have a list of missing parameters

 CHARGE_INFO| Total Charge of the Classical System:                    -0.825808

 SPLINE_INFO| Generating 101926 splines for NONBONDED14 interactions 
              Due to 451 different atomic kinds
  ...10192  ...20384  ...30576  ...40768  ...50960  ...61152  ...71344  ...81536  ...91728  ...101920
 SPLINE_INFO| Number of unique splines computed:            301
 SPLINE_INFO| Done

 SPLINE_INFO| Generating 101926 splines for NONBONDED interactions 
              Due to 451 different atomic kinds
  ...10192  ...20384  ...30576  ...40768  ...50960  ...61152  ...71344  ...81536  ...91728  ...101920
 SPLINE_INFO| Number of unique splines computed:            301
 SPLINE_INFO| Done

 *******************************************************************************
 *******************************************************************************
 **                                                                           **
 **     #####                         ##              ##                      **
 **    ##   ##            ##          ##              ##                      **
 **   ##     ##                       ##            ######                    **
 **   ##     ##  ##   ##  ##   #####  ##  ##   ####   ##    #####    #####    **
 **   ##     ##  ##   ##  ##  ##      ## ##   ##      ##   ##   ##  ##   ##   **
 **   ##  ## ##  ##   ##  ##  ##      ####     ###    ##   ######   ######    **
 **    ##  ###   ##   ##  ##  ##      ## ##      ##   ##   ##       ##        **
 **     #######   #####   ##   #####  ##  ##  ####    ##    #####   ##        **
 **           ##                                                    ##        **
 **                                                                           **
 **                                                ... make the atoms dance   **
 **                                                                           **
 **            Copyright (C) by CP2K developers group (2000-2021)             **
 **                      J. Chem. Phys. 152, 194103 (2020)                    **
 **                                                                           **
 *******************************************************************************


 TOTAL NUMBERS AND MAXIMUM NUMBERS

  Total number of            - Atomic kinds:                                   5
                             - Atoms:                                         68
                             - Shell sets:                                   340
                             - Shells:                                       445
                             - Primitive Cartesian functions:                476
                             - Cartesian basis functions:                   1137
                             - Spherical basis functions:                   1067

  Maximum angular momentum of- Orbital basis functions:                        2
                             - Local part of the GTH pseudopotential:          2
                             - Non-local part of the GTH pseudopotential:      0


 SCF PARAMETERS         Density guess:                                   RESTART
                        --------------------------------------------------------
                        max_scf:                                              30
                        max_scf_history:                                       0
                        max_diis:                                              4
                        --------------------------------------------------------
                        eps_scf:                                        1.00E-06
                        eps_scf_history:                                0.00E+00
                        eps_diis:                                       1.00E-01
                        eps_eigval:                                     1.00E-05
                        --------------------------------------------------------
                        level_shift [a.u.]:                                 0.00
                        --------------------------------------------------------
                        Outer loop SCF in use 
                        No variables optimised in outer loop
                        eps_scf                                         1.00E-06
                        max_scf                                               20
                        No outer loop optimization
                        step_size                                       5.00E-01

 *******************************************************************************
 *******************************************************************************
 **                                                                           **
 **             #######  ##     ## ##     ## ##     ##                        **
 **            ##     ## ###   ### ###   ### ###   ###                        **
 **            ##     ## #### #### #### #### #### ####                        **
 **            ##     ## ## ### ## ## ### ## ## ### ##                        **
 **            ##  ## ## ##     ## ##     ## ##     ##                        **
 **            ##    ##  ##     ## ##     ## ##     ##  T.Laino and F.Mohamed **
 **             ##### ## ##     ## ##     ## ##     ##  2005 - 2015           **
 **                                                                           **
 **                                                     Calculation Started.. **
 *******************************************************************************
 *******************************************************************************

 MD_PAR| Molecular dynamics protocol (MD input parameters)
 MD_PAR| Ensemble type                                                       NVE
 MD_PAR| Number of time steps                                                  6
 MD_PAR| Time step [fs]                                                 1.000000
 MD_PAR| Temperature [K]                                              300.000000
 MD_PAR| Temperature tolerance [K]                                      0.000000
 MD_PAR| Print MD information every                                    1 step(s)
 MD_PAR| File type   Print frequency [steps]                          File names
 MD_PAR| Coordinates          1                           CBD_PHY-PBE0-pos-1.xyz
 MD_PAR| Velocities           1                           CBD_PHY-PBE0-vel-1.xyz
 MD_PAR| Energies             1                              CBD_PHY-PBE0-1.ener
 MD_PAR| Dump                20                           CBD_PHY-PBE0-1.restart

 ROT| Rotational analysis information
 ROT| Principal axes and moments of inertia [a.u.]
 ROT|                           1                   2                   3
 ROT| Eigenvalues      1.56283164001E+13   1.56407408488E+13   1.56663418804E+13
 ROT|      x              0.901637047331     -0.018153263569      0.432112362589
 ROT|      y              0.323714777231      0.690893927917     -0.646431994388
 ROT|      z             -0.286808957117      0.722728191915      0.628812040859
 ROT| Number of rotovibrational vectors                                        6

 DOF| Calculation of degrees of freedom
 DOF| Number of atoms                                                     167923
 DOF| Number of intramolecular constraints                                     0
 DOF| Number of intermolecular constraints                                     0
 DOF| Invariants (translations + rotations)                                    3
 DOF| Degrees of freedom                                                  503766

 DOF| Restraints information
 DOF| Number of intramolecular restraints                                      0
 DOF| Number of intermolecular restraints                                      0

 MD_VEL| Velocities initialization
 MD_VEL| Initial temperature [K]                                      300.000000
 MD_VEL| COM velocity            -0.0000000000     0.0000000000     0.0000000000

  Translating the system in order to center the QM fragment in the QM box.

 Number of electrons:                                                        180
 Number of occupied orbitals:                                                 90
 Number of molecular orbitals:                                                90

 Number of orbital functions:                                               1067
 Number of independent orbital functions:                                   1067

 Extrapolation method: initial_guess


 SCF WAVEFUNCTION OPTIMIZATION

  ----------------------------------- OT ---------------------------------------
  Minimizer      : DIIS                : direct inversion
                                         in the iterative subspace
                                         using   7 DIIS vectors
                                         safer DIIS on
  Preconditioner : FULL_ALL            : diagonalization, state selective
  Precond_solver : DEFAULT
  stepsize       :    0.15000000                  energy_gap     :    0.08000000
  eps_taylor     :   0.10000E-15                  max_taylor     :             4
  ----------------------------------- OT ---------------------------------------

  Step     Update method      Time    Convergence         Total energy    Change
  ------------------------------------------------------------------------------
  Decoupling Energy:                                               0.0370647021
  Recoupling Energy:                                              -0.0063741479
     1 OT DIIS     0.15E+00   20.6     0.00129057      -255.9257316521 -2.56E+02
  Decoupling Energy:                                               0.0370576004
  Recoupling Energy:                                              -0.0063740314
     2 OT DIIS     0.15E+00    8.6     0.00057761      -255.9419521977 -1.62E-02
  Decoupling Energy:                                               0.0369596417
  Recoupling Energy:                                              -0.0063730135
     3 OT DIIS     0.15E+00    8.6     0.00038348      -255.9451217318 -3.17E-03
  Decoupling Energy:                                               0.0369795470
  Recoupling Energy:                                              -0.0063732416
     4 OT DIIS     0.15E+00    8.6     0.00009866      -255.9458275768 -7.06E-04
  Decoupling Energy:                                               0.0369716948
  Recoupling Energy:                                              -0.0063731487
     5 OT DIIS     0.15E+00    8.6     0.00003992      -255.9458779686 -5.04E-05
  Decoupling Energy:                                               0.0369737640
  Recoupling Energy:                                              -0.0063731649
     6 OT DIIS     0.15E+00    8.6     0.00001793      -255.9458894170 -1.14E-05
  Decoupling Energy:                                               0.0369741808
  Recoupling Energy:                                              -0.0063731680
     7 OT DIIS     0.15E+00    8.6     0.00000621      -255.9458922938 -2.88E-06
  Decoupling Energy:                                               0.0369727127
  Recoupling Energy:                                              -0.0063731518
     8 OT DIIS     0.15E+00    8.6     0.00000242      -255.9458926328 -3.39E-07
  Decoupling Energy:                                               0.0369731061
  Recoupling Energy:                                              -0.0063731556
     9 OT DIIS     0.15E+00    8.6     0.00000111      -255.9458926822 -4.94E-08
  Decoupling Energy:                                               0.0369728228
  Recoupling Energy:                                              -0.0063731526
    10 OT DIIS     0.15E+00    8.6     0.00000048      -255.9458926924 -1.02E-08

  *** SCF run converged in    10 steps ***


  Electronic density on regular grids:       -179.9999999999        0.0000000001
  Core density on regular grids:              180.9999999999       -0.0000000001
  Total charge density on r-space grids:        1.0000000000
  Total charge density g-space grids:           1.0000000000

  Overlap energy of the core charge distribution:               0.00001951532734
  Self energy of the core charge distribution:               -615.71576003586028
  Core Hamiltonian energy:                                    191.01363220817908
  Hartree energy:                                             248.20663869015880
  Exchange-correlation energy:                                -61.38430761263365
  Hartree-Fock Exchange energy:                               -18.10821018492825
  QM/MM Electrostatic energy:                                   0.04209472735415

  Total energy:                                              -255.94589269240282

  outer SCF iter =    1 RMS gradient =   0.48E-06 energy =       -255.9458926924
  outer SCF loop converged in   1 iterations or   10 steps

  Decoupling Energy:                                               0.0369728028
  Recoupling Energy:                                              -0.0063731523

 ENERGY| Total FORCE_EVAL ( QMMM ) energy [a.u.]:          -1088.110859625297735

 MD_INI| MD initialization
 MD_INI| Potential energy [hartree]                          -0.108811085963E+04
 MD_INI| Total kinetic energy [hartree]                       0.239300084734E+03
 MD_INI| QM kinetic energy [hartree]                          0.106639360339E+00
 MD_INI| Total temperature [K]                                        300.000000
 MD_INI| QM temperature [K]                                           330.137318
 MD_INI| Cell volume [bohr^3]                                 1.137316355424E+07
 MD_INI| Cell volume [ang^3]                                  1.685328937712E+06
 MD_INI| Cell lengths [bohr]      2.24884969E+02  2.24884969E+02  2.24884969E+02
 MD_INI| Cell lengths [ang]       1.19004000E+02  1.19004000E+02  1.19004000E+02
 MD_INI| Cell angles [deg]        9.00000000E+01  9.00000000E+01  9.00000000E+01

  Translating the system in order to center the QM fragment in the QM box.

 Number of electrons:                                                        180
 Number of occupied orbitals:                                                 90
 Number of molecular orbitals:                                                90

 Number of orbital functions:                                               1067
 Number of independent orbital functions:                                   1067

 Extrapolation method: ASPC


 SCF WAVEFUNCTION OPTIMIZATION

  ----------------------------------- OT ---------------------------------------
  Minimizer      : DIIS                : direct inversion
                                         in the iterative subspace
                                         using   7 DIIS vectors
                                         safer DIIS on
  Preconditioner : FULL_ALL            : diagonalization, state selective
  Precond_solver : DEFAULT
  stepsize       :    0.15000000                  energy_gap     :    0.08000000
  eps_taylor     :   0.10000E-15                  max_taylor     :             4
  ----------------------------------- OT ---------------------------------------

  Step     Update method      Time    Convergence         Total energy    Change
  ------------------------------------------------------------------------------
  Decoupling Energy:                                               0.0370014667
  Recoupling Energy:                                              -0.0063734172
     1 OT DIIS     0.15E+00   17.1     0.00075899      -255.7182133788 -2.56E+02
  Decoupling Energy:                                               0.0370082385
  Recoupling Energy:                                              -0.0063735355
     2 OT DIIS     0.15E+00    8.7     0.00032685      -255.7237312583 -5.52E-03
  Decoupling Energy:                                               0.0370087411
  Recoupling Energy:                                              -0.0063735590
     3 OT DIIS     0.15E+00    8.6     0.00019068      -255.7247685892 -1.04E-03
  Decoupling Energy:                                               0.0370199882
  Recoupling Energy:                                              -0.0063736817
     4 OT DIIS     0.15E+00    8.7     0.00006054      -255.7249610263 -1.92E-04
  Decoupling Energy:                                               0.0370216762
  Recoupling Energy:                                              -0.0063737045
     5 OT DIIS     0.15E+00    8.7     0.00001954      -255.7249775910 -1.66E-05
  Decoupling Energy:                                               0.0370210005
  Recoupling Energy:                                              -0.0063736984
     6 OT DIIS     0.15E+00    8.7     0.00000817      -255.7249798493 -2.26E-06
  Decoupling Energy:                                               0.0370221929
  Recoupling Energy:                                              -0.0063737124
     7 OT DIIS     0.15E+00    8.7     0.00000308      -255.7249803114 -4.62E-07
  Decoupling Energy:                                               0.0370222382
  Recoupling Energy:                                              -0.0063737132
     8 OT DIIS     0.15E+00    8.6     0.00000136      -255.7249803887 -7.72E-08
  Decoupling Energy:                                               0.0370224658
  Recoupling Energy:                                              -0.0063737159
     9 OT DIIS     0.15E+00    8.7     0.00000058      -255.7249804044 -1.57E-08

  *** SCF run converged in     9 steps ***


  Electronic density on regular grids:       -180.0000000000        0.0000000000
  Core density on regular grids:              180.9999999999       -0.0000000001
  Total charge density on r-space grids:        0.9999999999
  Total charge density g-space grids:           0.9999999999

  Overlap energy of the core charge distribution:               0.00002422739645
  Self energy of the core charge distribution:               -615.71576003586028
  Core Hamiltonian energy:                                    191.21094983011085
  Hartree energy:                                             248.07774823817016
  Exchange-correlation energy:                                -61.42683491899342
  Hartree-Fock Exchange energy:                               -18.12283148515233
  QM/MM Electrostatic energy:                                   0.25172373995205

  Total energy:                                              -255.72498040437651

  outer SCF iter =    1 RMS gradient =   0.58E-06 energy =       -255.7249804044
  outer SCF loop converged in   1 iterations or    9 steps

  Decoupling Energy:                                               0.0370224944
  Recoupling Energy:                                              -0.0063737164

 ENERGY| Total FORCE_EVAL ( QMMM ) energy [a.u.]:          -1059.962356574751539

 MD| ***************************************************************************
 MD| Step number                                                               1
 MD| Time [fs]                                                          1.000000
 MD| Conserved quantity [hartree]                            -0.841461427211E+03
 MD| ---------------------------------------------------------------------------
 MD|                                          Instantaneous             Averages
 MD| CPU time per MD step [s]                    377.789788           377.789788
 MD| Energy drift per atom [K]           0.138202490192E+02   0.000000000000E+00
 MD| Potential energy [hartree]         -0.105996235657E+04  -0.105996235657E+04
 MD| Total kinetic energy [hartree]      0.218500929364E+03   0.218500929364E+03
 MD| QM kinetic energy [hartree]         0.121347238742E+00   0.121347238742E+00
 MD| Total temperature [K]                       273.925013           273.925013
 MD| QM temperature [K]                          375.670408           375.670408
 MD| ***************************************************************************

  Translating the system in order to center the QM fragment in the QM box.

 Number of electrons:                                                        180
 Number of occupied orbitals:                                                 90
 Number of molecular orbitals:                                                90

 Number of orbital functions:                                               1067
 Number of independent orbital functions:                                   1067

 Extrapolation method: ASPC


 SCF WAVEFUNCTION OPTIMIZATION

  ----------------------------------- OT ---------------------------------------
  Minimizer      : DIIS                : direct inversion
                                         in the iterative subspace
                                         using   7 DIIS vectors
                                         safer DIIS on
  Preconditioner : FULL_ALL            : diagonalization, state selective
  Precond_solver : DEFAULT
  stepsize       :    0.15000000                  energy_gap     :    0.08000000
  eps_taylor     :   0.10000E-15                  max_taylor     :             4
  ----------------------------------- OT ---------------------------------------

  Step     Update method      Time    Convergence         Total energy    Change
  ------------------------------------------------------------------------------
  Decoupling Energy:                                               0.0370781910
  Recoupling Energy:                                              -0.0063743357
     1 OT DIIS     0.15E+00   16.9     0.00029255      -255.3622523343 -2.55E+02
  Decoupling Energy:                                               0.0370714461
  Recoupling Energy:                                              -0.0063742686
     2 OT DIIS     0.15E+00    8.2     0.00012379      -255.3630881257 -8.36E-04
  Decoupling Energy:                                               0.0370747197
  Recoupling Energy:                                              -0.0063743003
     3 OT DIIS     0.15E+00    8.1     0.00005679      -255.3632554504 -1.67E-04
  Decoupling Energy:                                               0.0370720761
  Recoupling Energy:                                              -0.0063742776
     4 OT DIIS     0.15E+00    8.1     0.00001757      -255.3632742439 -1.88E-05
  Decoupling Energy:                                               0.0370725473
  Recoupling Energy:                                              -0.0063742816
     5 OT DIIS     0.15E+00    8.1     0.00000682      -255.3632757708 -1.53E-06
  Decoupling Energy:                                               0.0370729643
  Recoupling Energy:                                              -0.0063742866
     6 OT DIIS     0.15E+00    8.1     0.00000313      -255.3632760286 -2.58E-07
  Decoupling Energy:                                               0.0370729491
  Recoupling Energy:                                              -0.0063742866
     7 OT DIIS     0.15E+00    8.1     0.00000105      -255.3632760895 -6.10E-08
  Decoupling Energy:                                               0.0370730071
  Recoupling Energy:                                              -0.0063742873
     8 OT DIIS     0.15E+00    8.2     0.00000048      -255.3632760997 -1.02E-08

  *** SCF run converged in     8 steps ***


  Electronic density on regular grids:       -180.0000000000       -0.0000000000
  Core density on regular grids:              180.9999999999       -0.0000000001
  Total charge density on r-space grids:        0.9999999998
  Total charge density g-space grids:           0.9999999998

  Overlap energy of the core charge distribution:               0.00005088937563
  Self energy of the core charge distribution:               -615.71576003586028
  Core Hamiltonian energy:                                    191.44418354406275
  Hartree energy:                                             247.94136967070699
  Exchange-correlation energy:                                -61.47332477794049
  Hartree-Fock Exchange energy:                               -18.13880670624419
  QM/MM Electrostatic energy:                                   0.57901131620210

  Total energy:                                              -255.36327609969749

  outer SCF iter =    1 RMS gradient =   0.48E-06 energy =       -255.3632760997
  outer SCF loop converged in   1 iterations or    8 steps

  Decoupling Energy:                                               0.0370730238
  Recoupling Energy:                                              -0.0063742875

 ENERGY| Total FORCE_EVAL ( QMMM ) energy [a.u.]:          -1061.235329447843696

 MD| ***************************************************************************
 MD| Step number                                                               2
 MD| Time [fs]                                                          2.000000
 MD| Conserved quantity [hartree]                            -0.842817774857E+03
 MD| ---------------------------------------------------------------------------
 MD|                                          Instantaneous             Averages
 MD| CPU time per MD step [s]                    168.549550           273.169669
 MD| Energy drift per atom [K]           0.112696740510E+02   0.563483702552E+01
 MD| Potential energy [hartree]         -0.106123532945E+04  -0.106059884301E+04
 MD| Total kinetic energy [hartree]      0.218417554591E+03   0.218459241977E+03
 MD| QM kinetic energy [hartree]         0.111578066626E+00   0.116462652684E+00
 MD| Total temperature [K]                       273.820490           273.872751
 MD| QM temperature [K]                          345.426713           360.548560
 MD| ***************************************************************************

  Translating the system in order to center the QM fragment in the QM box.

 Number of electrons:                                                        180
 Number of occupied orbitals:                                                 90
 Number of molecular orbitals:                                                90

 Number of orbital functions:                                               1067
 Number of independent orbital functions:                                   1067

 Extrapolation method: ASPC


 SCF WAVEFUNCTION OPTIMIZATION

  ----------------------------------- OT ---------------------------------------
  Minimizer      : DIIS                : direct inversion
                                         in the iterative subspace
                                         using   7 DIIS vectors
                                         safer DIIS on
  Preconditioner : FULL_ALL            : diagonalization, state selective
  Precond_solver : DEFAULT
  stepsize       :    0.15000000                  energy_gap     :    0.08000000
  eps_taylor     :   0.10000E-15                  max_taylor     :             4
  ----------------------------------- OT ---------------------------------------

  Step     Update method      Time    Convergence         Total energy    Change
  ------------------------------------------------------------------------------
  Decoupling Energy:                                               0.0371231531
  Recoupling Energy:                                              -0.0063748341
     1 OT DIIS     0.15E+00   17.0     0.00057315      -254.8840259421 -2.55E+02
  Decoupling Energy:                                               0.0371264225
  Recoupling Energy:                                              -0.0063748792
     2 OT DIIS     0.15E+00    8.7     0.00022568      -254.8871521759 -3.13E-03
  Decoupling Energy:                                               0.0371270551
  Recoupling Energy:                                              -0.0063748842
     3 OT DIIS     0.15E+00    8.7     0.00008228      -254.8877076224 -5.55E-04
  Decoupling Energy:                                               0.0371223455
  Recoupling Energy:                                              -0.0063748375
     4 OT DIIS     0.15E+00    8.7     0.00002754      -254.8877578441 -5.02E-05
  Decoupling Energy:                                               0.0371233165
  Recoupling Energy:                                              -0.0063748478
     5 OT DIIS     0.15E+00    8.7     0.00001038      -254.8877616477 -3.80E-06
  Decoupling Energy:                                               0.0371231635
  Recoupling Energy:                                              -0.0063748451
     6 OT DIIS     0.15E+00    8.7     0.00000440      -254.8877622341 -5.86E-07
  Decoupling Energy:                                               0.0371230843
  Recoupling Energy:                                              -0.0063748446
     7 OT DIIS     0.15E+00    8.7     0.00000136      -254.8877623246 -9.05E-08
  Decoupling Energy:                                               0.0371230865
  Recoupling Energy:                                              -0.0063748447
     8 OT DIIS     0.15E+00    8.7     0.00000059      -254.8877623354 -1.08E-08

  *** SCF run converged in     8 steps ***


  Electronic density on regular grids:       -180.0000000003       -0.0000000003
  Core density on regular grids:              180.9999999999       -0.0000000001
  Total charge density on r-space grids:        0.9999999996
  Total charge density g-space grids:           0.9999999996

  Overlap energy of the core charge distribution:               0.00005124450113
  Self energy of the core charge distribution:               -615.71576003586028
  Core Hamiltonian energy:                                    191.49124680476078
  Hartree energy:                                             247.90728962225481
  Exchange-correlation energy:                                -61.48094490668099
  Hartree-Fock Exchange energy:                               -18.14140125556856
  QM/MM Electrostatic energy:                                   1.05175619115109

  Total energy:                                              -254.88776233544203

  outer SCF iter =    1 RMS gradient =   0.59E-06 energy =       -254.8877623354
  outer SCF loop converged in   1 iterations or    8 steps

  Decoupling Energy:                                               0.0371230863
  Recoupling Energy:                                              -0.0063748446

 ENERGY| Total FORCE_EVAL ( QMMM ) energy [a.u.]:          -1082.045340794338699

 MD| ***************************************************************************
 MD| Step number                                                               3
 MD| Time [fs]                                                          3.000000
 MD| Conserved quantity [hartree]                            -0.846392350216E+03
 MD| ---------------------------------------------------------------------------
 MD|                                          Instantaneous             Averages
 MD| CPU time per MD step [s]                    175.777653           240.705664
 MD| Energy drift per atom [K]           0.454778202075E+01   0.527248535726E+01
 MD| Potential energy [hartree]         -0.108204534079E+04  -0.106774767561E+04
 MD| Total kinetic energy [hartree]      0.235652990578E+03   0.224190491511E+03
 MD| QM kinetic energy [hartree]         0.117356370406E+00   0.116760558591E+00
 MD| Total temperature [K]                       295.427798           281.057767
 MD| QM temperature [K]                          363.315358           361.470826
 MD| ***************************************************************************

  Translating the system in order to center the QM fragment in the QM box.

 Number of electrons:                                                        180
 Number of occupied orbitals:                                                 90
 Number of molecular orbitals:                                                90

 Number of orbital functions:                                               1067
 Number of independent orbital functions:                                   1067

 Extrapolation method: ASPC


 SCF WAVEFUNCTION OPTIMIZATION

  ----------------------------------- OT ---------------------------------------
  Minimizer      : DIIS                : direct inversion
                                         in the iterative subspace
                                         using   7 DIIS vectors
                                         safer DIIS on
  Preconditioner : FULL_ALL            : diagonalization, state selective
  Precond_solver : DEFAULT
  stepsize       :    0.15000000                  energy_gap     :    0.08000000
  eps_taylor     :   0.10000E-15                  max_taylor     :             4
  ----------------------------------- OT ---------------------------------------

  Step     Update method      Time    Convergence         Total energy    Change
  ------------------------------------------------------------------------------
  Decoupling Energy:                                               0.0371654122
  Recoupling Energy:                                              -0.0063753278
     1 OT DIIS     0.15E+00   16.9     0.00026638      -254.3373027473 -2.54E+02
  Decoupling Energy:                                               0.0371741911
  Recoupling Energy:                                              -0.0063754093
     2 OT DIIS     0.15E+00    8.4     0.00010679      -254.3379920675 -6.89E-04
  Decoupling Energy:                                               0.0371691753
  Recoupling Energy:                                              -0.0063753575
     3 OT DIIS     0.15E+00    8.3     0.00003982      -254.3381200054 -1.28E-04
  Decoupling Energy:                                               0.0371714656
  Recoupling Energy:                                              -0.0063753812
     4 OT DIIS     0.15E+00    8.3     0.00001269      -254.3381298170 -9.81E-06
  Decoupling Energy:                                               0.0371702637
  Recoupling Energy:                                              -0.0063753693
     5 OT DIIS     0.15E+00    8.3     0.00000538      -254.3381306557 -8.39E-07
  Decoupling Energy:                                               0.0371705252
  Recoupling Energy:                                              -0.0063753714
     6 OT DIIS     0.15E+00    8.3     0.00000188      -254.3381307932 -1.37E-07
  Decoupling Energy:                                               0.0371705428
  Recoupling Energy:                                              -0.0063753718
     7 OT DIIS     0.15E+00    8.3     0.00000064      -254.3381308118 -1.86E-08

  *** SCF run converged in     7 steps ***


  Electronic density on regular grids:       -179.9999999999        0.0000000001
  Core density on regular grids:              180.9999999999       -0.0000000001
  Total charge density on r-space grids:        1.0000000000
  Total charge density g-space grids:           1.0000000000

  Overlap energy of the core charge distribution:               0.00002358462054
  Self energy of the core charge distribution:               -615.71576003586028
  Core Hamiltonian energy:                                    191.34733464848210
  Hartree energy:                                             247.97608797408921
  Exchange-correlation energy:                                -61.44936981993277
  Hartree-Fock Exchange energy:                               -18.13041837655640
  QM/MM Electrostatic energy:                                   1.63397121340309

  Total energy:                                              -254.33813081175452

  outer SCF iter =    1 RMS gradient =   0.64E-06 energy =       -254.3381308118
  outer SCF loop converged in   1 iterations or    7 steps

  Decoupling Energy:                                               0.0371704710
  Recoupling Energy:                                              -0.0063753710

 ENERGY| Total FORCE_EVAL ( QMMM ) energy [a.u.]:          -1079.714053003908930

 MD| ***************************************************************************
 MD| Step number                                                               4
 MD| Time [fs]                                                          4.000000
 MD| Conserved quantity [hartree]                            -0.842113596276E+03
 MD| ---------------------------------------------------------------------------
 MD|                                          Instantaneous             Averages
 MD| CPU time per MD step [s]                    161.792363           220.977339
 MD| Energy drift per atom [K]           0.125938627779E+02   0.710282971242E+01
 MD| Potential energy [hartree]         -0.107971405300E+04  -0.107073926996E+04
 MD| Total kinetic energy [hartree]      0.237600456728E+03   0.227542982815E+03
 MD| QM kinetic energy [hartree]         0.148328618079E+00   0.124652573463E+00
 MD| Total temperature [K]                       297.869251           285.260638
 MD| QM temperature [K]                          459.200168           385.903162
 MD| ***************************************************************************

  Translating the system in order to center the QM fragment in the QM box.

 Number of electrons:                                                        180
 Number of occupied orbitals:                                                 90
 Number of molecular orbitals:                                                90

 Number of orbital functions:                                               1067
 Number of independent orbital functions:                                   1067

 Extrapolation method: ASPC


 SCF WAVEFUNCTION OPTIMIZATION

  ----------------------------------- OT ---------------------------------------
  Minimizer      : DIIS                : direct inversion
                                         in the iterative subspace
                                         using   7 DIIS vectors
                                         safer DIIS on
  Preconditioner : FULL_ALL            : diagonalization, state selective
  Precond_solver : DEFAULT
  stepsize       :    0.15000000                  energy_gap     :    0.08000000
  eps_taylor     :   0.10000E-15                  max_taylor     :             4
  ----------------------------------- OT ---------------------------------------

  Step     Update method      Time    Convergence         Total energy    Change
  ------------------------------------------------------------------------------
  Decoupling Energy:                                               0.0372103489
  Recoupling Energy:                                              -0.0063758460
     1 OT DIIS     0.15E+00   17.0     0.00032095      -253.7449339002 -2.54E+02
  Decoupling Energy:                                               0.0372072511
  Recoupling Energy:                                              -0.0063758024
     2 OT DIIS     0.15E+00    8.8     0.00013140      -253.7458487651 -9.15E-04
  Decoupling Energy:                                               0.0372093732
  Recoupling Energy:                                              -0.0063758215
     3 OT DIIS     0.15E+00    8.8     0.00006216      -253.7460069521 -1.58E-04
  Decoupling Energy:                                               0.0372088171
  Recoupling Energy:                                              -0.0063758155
     4 OT DIIS     0.15E+00    8.8     0.00002419      -253.7460379637 -3.10E-05
  Decoupling Energy:                                               0.0372096227
  Recoupling Energy:                                              -0.0063758220
     5 OT DIIS     0.15E+00    8.8     0.00000522      -253.7460404676 -2.50E-06
  Decoupling Energy:                                               0.0372093058
  Recoupling Energy:                                              -0.0063758193
     6 OT DIIS     0.15E+00    8.8     0.00000250      -253.7460406103 -1.43E-07
  Decoupling Energy:                                               0.0372093086
  Recoupling Energy:                                              -0.0063758192
     7 OT DIIS     0.15E+00    8.8     0.00000088      -253.7460406420 -3.17E-08

  *** SCF run converged in     7 steps ***


  Electronic density on regular grids:       -180.0000000000       -0.0000000000
  Core density on regular grids:              180.9999999999       -0.0000000001
  Total charge density on r-space grids:        0.9999999998
  Total charge density g-space grids:           0.9999999998

  Overlap energy of the core charge distribution:               0.00001841785205
  Self energy of the core charge distribution:               -615.71576003586028
  Core Hamiltonian energy:                                    191.22473900317499
  Hartree energy:                                             248.04795482948157
  Exchange-correlation energy:                                -61.41798980791247
  Hartree-Fock Exchange energy:                               -18.11952252558586
  QM/MM Electrostatic energy:                                   2.23451947687647

  Total energy:                                              -253.74604064197354

  outer SCF iter =    1 RMS gradient =   0.88E-06 energy =       -253.7460406420
  outer SCF loop converged in   1 iterations or    7 steps

  Decoupling Energy:                                               0.0372093359
  Recoupling Energy:                                              -0.0063758194

 ENERGY| Total FORCE_EVAL ( QMMM ) energy [a.u.]:          -1094.307011003562138

 MD| ***************************************************************************
 MD| Step number                                                               5
 MD| Time [fs]                                                          5.000000
 MD| Conserved quantity [hartree]                            -0.848389415297E+03
 MD| ---------------------------------------------------------------------------
 MD|                                          Instantaneous             Averages
 MD| CPU time per MD step [s]                    167.705452           210.322961
 MD| Energy drift per atom [K]           0.792355290448E+00   0.584073482803E+01
 MD| Potential energy [hartree]         -0.109430701100E+04  -0.107545281816E+04
 MD| Total kinetic energy [hartree]      0.245917595706E+03   0.231217905393E+03
 MD| QM kinetic energy [hartree]         0.157565507596E+00   0.131235160290E+00
 MD| Total temperature [K]                       308.296083           289.867727
 MD| QM temperature [K]                          487.796007           406.281731
 MD| ***************************************************************************

  Translating the system in order to center the QM fragment in the QM box.

 Number of electrons:                                                        180
 Number of occupied orbitals:                                                 90
 Number of molecular orbitals:                                                90

 Number of orbital functions:                                               1067
 Number of independent orbital functions:                                   1067

 Extrapolation method: ASPC


 SCF WAVEFUNCTION OPTIMIZATION

  ----------------------------------- OT ---------------------------------------
  Minimizer      : DIIS                : direct inversion
                                         in the iterative subspace
                                         using   7 DIIS vectors
                                         safer DIIS on
  Preconditioner : FULL_ALL            : diagonalization, state selective
  Precond_solver : DEFAULT
  stepsize       :    0.15000000                  energy_gap     :    0.08000000
  eps_taylor     :   0.10000E-15                  max_taylor     :             4
  ----------------------------------- OT ---------------------------------------

  Step     Update method      Time    Convergence         Total energy    Change
  ------------------------------------------------------------------------------
  Decoupling Energy:                                               0.0372437773
  Recoupling Energy:                                              -0.0063762149
     1 OT DIIS     0.15E+00   17.0     0.00048948      -253.1925159420 -2.53E+02
  Decoupling Energy:                                               0.0372420353
  Recoupling Energy:                                              -0.0063762276
     2 OT DIIS     0.15E+00    8.5     0.00019212      -253.1946636517 -2.15E-03
  Decoupling Energy:                                               0.0372395916
  Recoupling Energy:                                              -0.0063761942
     3 OT DIIS     0.15E+00    8.5     0.00008072      -253.1950208276 -3.57E-04
  Decoupling Energy:                                               0.0372398882
  Recoupling Energy:                                              -0.0063761990
     4 OT DIIS     0.15E+00    8.4     0.00002253      -253.1950797006 -5.89E-05
  Decoupling Energy:                                               0.0372387819
  Recoupling Energy:                                              -0.0063761869
     5 OT DIIS     0.15E+00    8.5     0.00000837      -253.1950822788 -2.58E-06
  Decoupling Energy:                                               0.0372394792
  Recoupling Energy:                                              -0.0063761928
     6 OT DIIS     0.15E+00    8.5     0.00000287      -253.1950826370 -3.58E-07
  Decoupling Energy:                                               0.0372392250
  Recoupling Energy:                                              -0.0063761904
     7 OT DIIS     0.15E+00    8.5     0.00000086      -253.1950826775 -4.05E-08

  *** SCF run converged in     7 steps ***


  Electronic density on regular grids:       -180.0000000000       -0.0000000000
  Core density on regular grids:              180.9999999999       -0.0000000001
  Total charge density on r-space grids:        0.9999999999
  Total charge density g-space grids:           0.9999999999

  Overlap energy of the core charge distribution:               0.00001843292945
  Self energy of the core charge distribution:               -615.71576003586028
  Core Hamiltonian energy:                                    191.21897043172856
  Hartree energy:                                             248.05851624265753
  Exchange-correlation energy:                                -61.40903010963208
  Hartree-Fock Exchange energy:                               -18.11645407778586
  QM/MM Electrostatic energy:                                   2.76865643849471

  Total energy:                                              -253.19508267746801

  outer SCF iter =    1 RMS gradient =   0.86E-06 energy =       -253.1950826775
  outer SCF loop converged in   1 iterations or    7 steps

  Decoupling Energy:                                               0.0372392174
  Recoupling Energy:                                              -0.0063761902

 ENERGY| Total FORCE_EVAL ( QMMM ) energy [a.u.]:          -1057.339964436277342

 MD| ***************************************************************************
 MD| Step number                                                               6
 MD| Time [fs]                                                          6.000000
 MD| Conserved quantity [hartree]                            -0.842900322760E+03
 MD| ---------------------------------------------------------------------------
 MD|                                          Instantaneous             Averages
 MD| CPU time per MD step [s]                    162.442787           202.342932
 MD| Energy drift per atom [K]           0.111144449583E+02   0.671968651641E+01
 MD| Potential energy [hartree]         -0.105733996444E+04  -0.107243400921E+04
 MD| Total kinetic energy [hartree]      0.214439641676E+03   0.228421528107E+03
 MD| QM kinetic energy [hartree]         0.141133316874E+00   0.132884853054E+00
 MD| Total temperature [K]                       268.833555           286.362032
 MD| QM temperature [K]                          436.924740           411.388899
 MD| ***************************************************************************

 -------------------------------------------------------------------------------
 -                                                                             -
 -                                DBCSR STATISTICS                             -
 -                                                                             -
 -------------------------------------------------------------------------------
 COUNTER                                    TOTAL       BLAS       SMM       ACC
 flops     9 x    26 x    26              2810808     100.0%      0.0%      0.0%
 flops    22 x    26 x    26              7287280     100.0%      0.0%      0.0%
 flops     9 x    32 x    32              8515584     100.0%      0.0%      0.0%
 flops    26 x    26 x    26             13709280     100.0%      0.0%      0.0%
 flops    40 x    26 x    26             15142400     100.0%      0.0%      0.0%
 flops    22 x    32 x    32             22077440     100.0%      0.0%      0.0%
 flops    26 x    32 x    26             33745920     100.0%      0.0%      0.0%
 flops    32 x    26 x    26             33745920     100.0%      0.0%      0.0%
 flops    26 x    26 x    32             33745920     100.0%      0.0%      0.0%
 flops    40 x    32 x    26             37273600     100.0%      0.0%      0.0%
 flops    40 x    26 x    32             37273600     100.0%      0.0%      0.0%
 flops    40 x    26 x   257             67354560     100.0%      0.0%      0.0%
 flops    40 x    26 x   261             68402880     100.0%      0.0%      0.0%
 flops    40 x    26 x   270             70761600     100.0%      0.0%      0.0%
 flops    26 x    26 x   257             80264184     100.0%      0.0%      0.0%
 flops    26 x    26 x   261             81513432     100.0%      0.0%      0.0%
 flops    32 x    32 x    26             83066880     100.0%      0.0%      0.0%
 flops    26 x    32 x    32             83066880     100.0%      0.0%      0.0%
 flops    32 x    26 x    32             83066880     100.0%      0.0%      0.0%
 flops    26 x    26 x   270             84324240     100.0%      0.0%      0.0%
 flops    40 x    32 x    32             91750400     100.0%      0.0%      0.0%
 flops    62 x    26 x    26            117353600     100.0%      0.0%      0.0%
 flops    84 x    26 x    26            127196160     100.0%      0.0%      0.0%
 flops     9 x     9 x    26            165405240     100.0%      0.0%      0.0%
 flops    40 x    32 x   257            165795840     100.0%      0.0%      0.0%
 flops    40 x    32 x   261            168376320     100.0%      0.0%      0.0%
 flops    40 x    32 x   270            174182400     100.0%      0.0%      0.0%
 flops    26 x    32 x   257            197573376     100.0%      0.0%      0.0%
 flops    32 x    26 x   257            197573376     100.0%      0.0%      0.0%
 flops    26 x    32 x   261            200648448     100.0%      0.0%      0.0%
 flops    32 x    26 x   261            200648448     100.0%      0.0%      0.0%
 flops    32 x    32 x    32            204472320     100.0%      0.0%      0.0%
 flops    26 x    32 x   270            207567360     100.0%      0.0%      0.0%
 flops    32 x    26 x   270            207567360     100.0%      0.0%      0.0%
 flops    62 x    32 x    26            288870400     100.0%      0.0%      0.0%
 flops    62 x    26 x    32            288870400     100.0%      0.0%      0.0%
 flops    84 x    32 x    26            313098240     100.0%      0.0%      0.0%
 flops    84 x    26 x    32            313098240     100.0%      0.0%      0.0%
 flops     9 x     9 x    32            407151360     100.0%      0.0%      0.0%
 flops    22 x     9 x    26            415855440     100.0%      0.0%      0.0%
 flops     9 x    22 x    26            416576160     100.0%      0.0%      0.0%
 flops    32 x    32 x   257            486334464     100.0%      0.0%      0.0%
 flops    32 x    32 x   261            493903872     100.0%      0.0%      0.0%
 flops    32 x    32 x   270            510935040     100.0%      0.0%      0.0%
 flops    62 x    26 x   257            521997840     100.0%      0.0%      0.0%
 flops    62 x    26 x   261            530122320     100.0%      0.0%      0.0%
 flops    62 x    26 x   270            548402400     100.0%      0.0%      0.0%
 flops    84 x    26 x   257            565778304     100.0%      0.0%      0.0%
 flops    84 x    26 x   261            574584192     100.0%      0.0%      0.0%
 flops    84 x    26 x   270            594397440     100.0%      0.0%      0.0%
 flops    62 x    32 x    32            711065600     100.0%      0.0%      0.0%
 flops    84 x    32 x    32            770703360     100.0%      0.0%      0.0%
 flops     9 x    26 x     9            802701900     100.0%      0.0%      0.0%
 flops    22 x     9 x    32           1023644160     100.0%      0.0%      0.0%
 flops     9 x    22 x    32           1025418240     100.0%      0.0%      0.0%
 flops    22 x    22 x    26           1109908800     100.0%      0.0%      0.0%
 flops    62 x    32 x   257           1284917760     100.0%      0.0%      0.0%
 flops    62 x    32 x   261           1304916480     100.0%      0.0%      0.0%
 flops    62 x    32 x   270           1349913600     100.0%      0.0%      0.0%
 flops    84 x    32 x   257           1392685056     100.0%      0.0%      0.0%
 flops    84 x    32 x   261           1414361088     100.0%      0.0%      0.0%
 flops    84 x    32 x   270           1463132160     100.0%      0.0%      0.0%
 flops     9 x    32 x     9           1975881600     100.0%      0.0%      0.0%
 flops     9 x    26 x    22           2081079000     100.0%      0.0%      0.0%
 flops    22 x    26 x     9           2081079000     100.0%      0.0%      0.0%
 flops    22 x    22 x    32           2732083200     100.0%      0.0%      0.0%
 flops    22 x    32 x     9           5122656000     100.0%      0.0%      0.0%
 flops     9 x    32 x    22           5122656000     100.0%      0.0%      0.0%
 flops    22 x    26 x    22           5395390000     100.0%      0.0%      0.0%
 flops    22 x    32 x    22          13280960000     100.0%      0.0%      0.0%
 flops inhomo. stacks                 22522736880     100.0%      0.0%      0.0%
 flops total                        84.611126E+09     100.0%      0.0%      0.0%
 flops max/rank                     14.862747E+09     100.0%      0.0%      0.0%
 matmuls inhomo. stacks                     26019     100.0%      0.0%      0.0%
 matmuls total                            3001014     100.0%      0.0%      0.0%
 number of processed stacks                255936     100.0%      0.0%      0.0%
 average stack size                                    11.7       0.0       0.0
 marketing flops                    85.671830E+09
 -------------------------------------------------------------------------------
 # multiplications                           1286
 max memory usage/rank               5.954224E+09
 # max total images/rank                        2
 # max 3D layers                                1
 # MPI messages exchanged                   51440
 MPI messages size (bytes):
  total size                        10.161478E+09
  min size                           0.000000E+00
  max size                           1.196352E+06
  average size                     197.540391E+03
 MPI breakdown and total messages size (bytes):
             size <=      128               11951                        0
       128 < size <=     8192                9561                 70525344
      8192 < size <=    32768                3510                 48859200
     32768 < size <=   131072               14910               1232564256
    131072 < size <=  4194304               11508               8809536120
   4194304 < size <= 16777216                   0                        0
  16777216 < size                               0                        0
 -------------------------------------------------------------------------------

 *** WARNING in dbcsr_mm.F:294 :: Using a non-square number of MPI ranks ***
 *** might lead to poor performance. Used ranks: 8 Suggested: 9 16       ***

 -------------------------------------------------------------------------------
 -                                                                             -
 -                      DBCSR MESSAGE PASSING PERFORMANCE                      -
 -                                                                             -
 -------------------------------------------------------------------------------
 ROUTINE             CALLS      AVE VOLUME [Bytes]
 MP_Bcast               71                     12.
 MP_Allreduce         6890                      8.
 MP_Alltoall          5344                  38949.
 MP_ISend            19180                  81735.
 MP_IRecv            19180                  77019.
 -------------------------------------------------------------------------------

 -------------------------------------------------------------------------------
 -                                                                             -
 -                                GRID STATISTICS                              -
 -                                                                             -
 -------------------------------------------------------------------------------
 LP    KERNEL             BACKEND                              COUNT     PERCENT
 2     collocate ortho    REF                                1126269      19.22%
 2     integrate ortho    REF                                1106014      18.88%
 1     collocate ortho    REF                                 943978      16.11%
 1     integrate ortho    REF                                 870340      14.85%
 3     integrate ortho    REF                                 570062       9.73%
 3     collocate ortho    REF                                 500530       8.54%
 0     collocate ortho    REF                                 281245       4.80%
 0     integrate ortho    REF                                 249988       4.27%
 4     integrate ortho    REF                                 121240       2.07%
 4     collocate ortho    REF                                  73823       1.26%
 5     integrate ortho    REF                                   8201       0.14%
 0     collocate general  REF                                   3808       0.06%
 1     integrate general  REF                                   3808       0.06%
 -------------------------------------------------------------------------------

 MEMORY| Estimated peak process memory [MiB]                                5715

 -------------------------------------------------------------------------------
 -                                                                             -
 -                         MESSAGE PASSING PERFORMANCE                         -
 -                                                                             -
 -------------------------------------------------------------------------------

 ROUTINE             CALLS      AVE VOLUME [Bytes]
 MP_Group                8
 MP_Bcast             6928               10586816.
 MP_Allreduce         2439                1685116.
 MP_Sync               430
 MP_Alltoall          1330              143193107.
 MP_ISendRecv         3773                1247896.
 MP_Wait              6300
 MP_comm_split          14
 MP_ISend             2023                5093744.
 MP_IRecv             2016                5108587.
 MP_Recv                21                 196328.
 -------------------------------------------------------------------------------


 -------------------------------------------------------------------------------
 -                                                                             -
 -                           R E F E R E N C E S                               -
 -                                                                             -
 -------------------------------------------------------------------------------
 
 CP2K version 8.2, the CP2K developers group (2021).
 CP2K is freely available from https://www.cp2k.org/ .

 Kuehne,Thomas D.; Iannuzzi,Marcella; Del Ben,Mauro;
 Rybkin,Vladimir V.; Seewald,Patrick; Stein,Frederick; Laino,Teodoro;
 Khaliullin,Rustam Z.; Schuett,Ole; Schiffmann,Florian; Golze,Dorothea;
 Wilhelm,Jan; Chulkov,Sergey; Bani-Hashemian,Mohammad Hossein;
 Weber,Valery; Borstnik,Urban; Taillefumier,Mathieu;
 Jakobovits,Alice Shoshana; Lazzaro,Alfio; Pabst,Hans; Mueller,Tiziano;
 Schade,Robert; Guidon,Manuel; Andermatt,Samuel; Holmberg,Nico;
 Schenter,Gregory K.; Hehn,Anna; Bussy,Augustin; Belleflamme,Fabian;
 Tabacchi,Gloria; Gloess,Andreas; Lass,Michael; Bethune,Iain;
 Mundy,Christopher J.; Plessl,Christian; Watkins,Matt;
 VandeVondele,Joost; Krack,Matthias; Hutter,Juerg. 
 The Journal of Chemical Physics, 152 (19), (2020). 
 CP2K: An electronic structure and molecular dynamics software package -
 Quickstep: Efficient and accurate electronic structure calculations.
 https://doi.org/10.1063/5.0007045

 Schuett, Ole; Messmer, Peter; Hutter, Juerg; VandeVondele, Joost. 
 Electronic Structure Calculations on Graphics Processing Units, John
 Wiley & Sons, Ltd, 173-190 (2016). 
 GPU-Accelerated Sparse Matrix-Matrix Multiplication for
 Linear Scaling Density Functional Theory.
 https://doi.org/10.1002/9781118670712.ch8

 Borstnik, U; VandeVondele, J; Weber, V; Hutter, J. 
 PARALLEL COMPUTING, 40 (5-6), 47-58 (2014). 
 Sparse matrix multiplication: The distributed block-compressed sparse
 row library.
 https://doi.org/10.1016/j.parco.2014.03.012

 Hutter, J; Iannuzzi, M; Schiffmann, F; VandeVondele, J. 
 WIREs Comput Mol Sci., 4 (1), 15-25 (2014). 
 CP2K: atomistic simulations of condensed matter systems.
 https://doi.org/10.1002/wcms.1159

 Marek, A; Blum, V; Johanni, R; Havu, V; Lang, B; Auckenthaler, T;
 Heinecke, A; Bungartz, H; Lederer, H. 
 Journal of Physics: Condensed Matter, 26 (21), (2014). 
 The ELPA library: scalable parallel eigenvalue solutions for
 electronic structure
 theory and computational science.
 https://doi.org/10.1088/0953-8984/26/21/213201

 Guidon, M; Hutter, J; VandeVondele, J. 
 JOURNAL OF CHEMICAL THEORY AND COMPUTATION, 5 (11), 3010-3021 (2009). 
 Robust Periodic Hartree-Fock Exchange for Large-Scale Simulations Using
 Gaussian Basis Sets.
 https://doi.org/10.1021/ct900494g

 Guidon, M; Schiffmann, F; Hutter, J; VandeVondele, J. 
 JOURNAL OF CHEMICAL PHYSICS, 128 (21), 214104 (2008). 
 Ab initio molecular dynamics using hybrid density functionals.
 https://doi.org/10.1063/1.2931945

 Kuhne, TD; Krack, M; Mohamed, FR; Parrinello, M. 
 PHYSICAL REVIEW LETTERS, 98 (6), 066401 (2007). 
 Efficient and accurate Car-Parrinello-like approach to
 Born-Oppenheimer molecular dynamics.
 https://doi.org/10.1103/PhysRevLett.98.066401

 Laino, T; Mohamed, F; Laio, A; Parrinello, M. 
 JOURNAL OF CHEMICAL THEORY AND COMPUTATION, 2 (5), 1370-1378 (2006). 
 An efficient linear-scaling electrostatic coupling for treating
 periodic boundary conditions in QM/MM simulations.
 https://doi.org/10.1021/ct6001169

 Laino, T; Mohamed, F; Laio, A; Parrinello, M. 
 JOURNAL OF CHEMICAL THEORY AND COMPUTATION, 1 (6), 1176-1184 (2005). 
 An efficient real space multigrid QM/MM electrostatic coupling.
 https://doi.org/10.1021/ct050123f

 Krack, M. 
 THEORETICAL CHEMISTRY ACCOUNTS, 114 (1-3), 145-152 (2005). 
 Pseudopotentials for H to Kr optimized for gradient-corrected
 exchange-correlation functionals.
 https://doi.org/10.1007/s00214-005-0655-y

 VandeVondele, J; Krack, M; Mohamed, F; Parrinello, M; Chassaing, T;
 Hutter, J. COMPUTER PHYSICS COMMUNICATIONS, 167 (2), 103-128 (2005). 
 QUICKSTEP: Fast and accurate density functional calculations using a
 mixed Gaussian and plane waves approach.
 https://doi.org/10.1016/j.cpc.2004.12.014

 Frigo, M; Johnson, SG. 
 PROCEEDINGS OF THE IEEE, 93 (2), 216-231 (2005). 
 The design and implementation of FFTW3.
 https://doi.org/10.1109/JPROC.2004.840301

 Kolafa, J. 
 JOURNAL OF COMPUTATIONAL CHEMISTRY, 25 (3), 335-342 (2004). 
 Time-reversible always stable predictor-corrector method for molecular dynamics of polarizable molecules.
 https://doi.org/10.1002/jcc.10385

 VandeVondele, J; Hutter, J. 
 JOURNAL OF CHEMICAL PHYSICS, 118 (10), 4365-4369 (2003). 
 An efficient orbital transformation method for electronic structure
 calculations.
 https://doi.org/10.1063/1.1543154

 Hartwigsen, C; Goedecker, S; Hutter, J. 
 PHYSICAL REVIEW B, 58 (7), 3641-3662 (1998). 
 Relativistic separable dual-space Gaussian pseudopotentials from H to Rn.
 https://doi.org/10.1103/PhysRevB.58.3641

 Lippert, G; Hutter, J; Parrinello, M. 
 MOLECULAR PHYSICS, 92 (3), 477-487 (1997). 
 A hybrid Gaussian and plane wave density functional scheme.
 https://doi.org/10.1080/002689797170220

 Perdew, JP; Burke, K; Ernzerhof, M. 
 PHYSICAL REVIEW LETTERS, 77 (18), 3865-3868 (1996). 
 Generalized gradient approximation made simple.
 https://doi.org/10.1103/PhysRevLett.77.3865

 Goedecker, S; Teter, M; Hutter, J. 
 PHYSICAL REVIEW B, 54 (3), 1703-1710 (1996). 
 Separable dual-space Gaussian pseudopotentials.
 https://doi.org/10.1103/PhysRevB.54.1703

 ESSMANN, U; PERERA, L; BERKOWITZ, ML; DARDEN, T; LEE, H; PEDERSEN, LG. 
 JOURNAL OF CHEMICAL PHYSICS, 103 (19), 8577-8593 (1995). 
 A SMOOTH PARTICLE MESH EWALD METHOD.
 https://doi.org/10.1063/1.470117

 BLOCHL, PE. 
 JOURNAL OF CHEMICAL PHYSICS, 103 (17), 7422-7428 (1995). 
 ELECTROSTATIC DECOUPLING OF PERIODIC IMAGES OF PLANE-WAVE-EXPANDED
 DENSITIES AND DERIVED ATOMIC POINT CHARGES.
 https://doi.org/10.1063/1.470314


 -------------------------------------------------------------------------------
 -                                                                             -
 -                                T I M I N G                                  -
 -                                                                             -
 -------------------------------------------------------------------------------
 SUBROUTINE                       CALLS  ASD         SELF TIME        TOTAL TIME
                                MAXIMUM       AVERAGE  MAXIMUM  AVERAGE  MAXIMUM
 CP2K                                 1  1.0    0.177    0.186 1256.296 1256.297
 qs_mol_dyn_low                       1  2.0    0.008    0.008 1215.090 1216.541
 velocity_verlet                      6  3.0    0.024    0.026 1017.304 1017.631
 qs_forces                            7  3.9    0.001    0.001  883.014  883.014
 rebuild_ks_matrix                   63  8.5    0.000    0.000  833.715  833.728
 qs_ks_build_kohn_sham_matrix        63  9.5    0.010    0.010  833.714  833.728
 hfx_ks_matrix                       63 10.5    0.002    0.002  702.423  702.444
 qs_energies                          7  4.9    0.000    0.000  552.898  553.071
 scf_env_do_scf                       7  5.9    0.000    0.001  544.901  544.901
 qs_ks_update_qs_env                 63  7.8    0.001    0.001  503.970  503.980
 integrate_four_center               63 11.5    3.435    3.806  428.387  428.406
 scf_env_do_scf_inner_loop           56  6.8    0.001    0.003  422.691  422.700
 integrate_four_center_main          63 12.5    2.327    2.728  410.724  419.683
 integrate_four_center_bin         4043 13.5  408.397  417.237  408.397  417.237
 qs_ks_update_qs_env_forces           7  4.9    0.000    0.000  329.758  329.762
 derivatives_four_center              7  8.9    0.040    0.271  274.021  274.021
 derivatives_four_center_main         7  9.9    0.914    1.350  273.434  273.435
 derivatives_four_center_bin        469 10.9  271.755  272.338  271.755  272.338
 qmmm_el_coupling                     7  3.9    0.000    0.000  163.570  163.763
 qmmm_elec_with_gaussian              7  4.9    0.762    0.768  163.550  163.742
 qmmm_forces                          7  3.9    0.017    0.018  150.841  150.842
 qmmm_forces_with_gaussian            7  4.9    0.803    0.811  149.086  149.247
 qmmm_elec_with_gaussian_low          7  5.9    0.000    0.000  143.304  144.708
 qmmm_force_with_gaussian_low         7  5.9    0.000    0.000  126.662  126.828
 init_scf_loop                        7  6.9    0.000    0.000  122.197  122.197
 pw_transfer                       1337 12.0    0.108    0.115  114.353  118.328
 fft_wrap_pw1pw2                   1113 13.1    0.014    0.015  112.365  116.346
 fft_wrap_pw1pw2_200                707 14.4   10.599   10.936  110.784  114.746
 qmmm_forces_gaussian_low_R           7  6.9    0.000    0.000  104.852  105.112
 qmmm_forces_with_gaussian_LG         7  7.9  104.852  105.112  104.852  105.112
 qmmm_elec_gaussian_low_R             7  6.9    0.000    0.000   92.468   93.386
 qmmm_elec_with_gaussian_LG           7  7.9   92.468   93.386   92.468   93.386
 qs_vxc_create                       63 10.5    0.001    0.001   90.766   90.768
 xc_vxc_pw_create                    63 11.5    1.963    2.240   90.765   90.767
 fft3d_ps                          1113 15.1   62.199   63.203   86.335   90.517
 qmmm_elec_gaussian_low_G             7  6.9   50.836   51.826   50.836   51.826
 xc_rho_set_and_dset_create          63 12.5    0.550    0.563   47.521   49.597
 qs_rho_update_rho                   63  7.9    0.000    0.000   42.079   42.082
 calculate_rho_elec                  63  8.9    0.917    0.919   42.079   42.082
 qmmm_env_create                      1  2.0    7.436    7.461   39.533   39.533
 fist_init                            1  3.0    0.000    0.000   28.757   28.757
 density_rs2pw                       63  9.9    0.003    0.003   25.646   26.026
 pw_integral_ab                    2967  7.5   25.486   25.805   25.674   26.001
 -------------------------------------------------------------------------------

 The number of warnings for this run is : 1
 
 -------------------------------------------------------------------------------
  **** **** ******  **  PROGRAM ENDED AT                 2021-08-31 17:59:39.898
 ***** ** ***  *** **   PROGRAM RAN ON                                 nid002001
 **    ****   ******    PROGRAM RAN BY                                     hjbio
 ***** **    ** ** **   PROGRAM PROCESS ID                                212063
  **** **  *******  **  PROGRAM STOPPED IN /lus/cls01095/work/d118/d118/hjbio/qm
                                           mm-benchmarking/archer2/CPU/cp2kMD/CB
                                           D_PHY-PBE0/6STEPS/1NODES/64CPN/8THREA
                                           DS
