 DBCSR| CPU Multiplication driver                                           BLAS
 DBCSR| Multrec recursion limit                                              512
 DBCSR| Multiplication stack size                                           1000
 DBCSR| Maximum elements for images                                    UNLIMITED
 DBCSR| Multiplicative factor virtual images                                   1
 DBCSR| Use multiplication densification                                       T
 DBCSR| Multiplication size stacks                                             3
 DBCSR| Use memory pool for CPU allocation                                     F
 DBCSR| Number of 3D layers                                               SINGLE
 DBCSR| Use MPI memory allocation                                              F
 DBCSR| Use RMA algorithm                                                      F
 DBCSR| Use Communication thread                                               T
 DBCSR| Communication thread load                                             83
 DBCSR| MPI: My node id                                                        0
 DBCSR| MPI: Number of nodes                                                 256
 DBCSR| OMP: Current number of threads                                         2
 DBCSR| OMP: Max number of threads                                             2
 DBCSR| Split modifier for TAS multiplication algorithm                  1.0E+00


  **** **** ******  **  PROGRAM STARTED AT               2021-09-01 13:40:18.632
 ***** ** ***  *** **   PROGRAM STARTED ON                             nid001623
 **    ****   ******    PROGRAM STARTED BY                                 hjbio
 ***** **    ** ** **   PROGRAM PROCESS ID                                 95278
  **** **  *******  **  PROGRAM STARTED IN /lus/cls01095/work/d118/d118/hjbio/qm
                                           mm-benchmarking/archer2/CPU/cp2kMD/CB
                                           D_PHY-PBE0/6STEPS/4NODES/128CPN/2THRE
                                           ADS

 CP2K| version string:                                          CP2K version 8.2
 CP2K| source code revision number:                                  git:310b7ab
 CP2K| cp2kflags: omp libint fftw3 libxc elpa parallel mpi3 scalapack plumed2   
 CP2K| is freely available from                            https://www.cp2k.org/
 CP2K| Program compiled at                          Thu 10 Jun 17:43:51 BST 2021
 CP2K| Program compiled on                                                 uan01
 CP2K| Program compiled for                                              ARCHER2
 CP2K| Data directory path              /work/d118/d118/hjbio/CP2K/cp2k-8.2/data
 CP2K| Input file name                                          CBD_PHY-cp2k.inp

 GLOBAL| Force Environment number                                              1
 GLOBAL| Basis set file name                                           HFX_BASIS
 GLOBAL| Potential file name                                           POTENTIAL
 GLOBAL| MM Potential file name                                     MM_POTENTIAL
 GLOBAL| Coordinate file name                                        CBD_PHY.pdb
 GLOBAL| Method name                                                        CP2K
 GLOBAL| Project name                                               CBD_PHY-PBE0
 GLOBAL| Run type                                                             MD
 GLOBAL| FFT library                                                       FFTW3
 GLOBAL| Diagonalization library                                            ELPA
 GLOBAL| Minimum number of eigenvectors for ELPA usage                        16
 GLOBAL| Orthonormality check for eigenvectors                          DISABLED
 GLOBAL| Matrix multiplication library                                    SCALAP
 GLOBAL| All-to-all communication in single precision                          F
 GLOBAL| FFTs using library dependent lengths                                  F
 GLOBAL| Grid backend                                                       AUTO
 GLOBAL| Global print level                                                  LOW
 GLOBAL| MPI I/O enabled                                                       T
 GLOBAL| Total number of message passing processes                           256
 GLOBAL| Number of threads for this process                                    2
 GLOBAL| This output is from process                                           0
 GLOBAL| CPU model name                          AMD EPYC 7742 64-Core Processor
 GLOBAL| CPUID                                                              1002

 MEMORY| system memory details [Kb]
 MEMORY|                        rank 0           min           max       average
 MEMORY| MemTotal            263568576     263568576     263568576     263568576
 MEMORY| MemFree             245804296     245804296     246823812     246456626
 MEMORY| Buffers                293844        293384        293844        293500
 MEMORY| Cached                3826576       2976896       3826576       3246573
 MEMORY| Slab                  1669216       1575964       1669216       1599644
 MEMORY| SReclaimable           213508        209204        213508        211049
 MEMORY| MemLikelyFree       250138224     250138224     250305088     250207748



                      ************* ******** ***********   
                     ************* **********************  
                     ****     **** ****      ***********   
                     ******** ****  *******     ****       
                     *******  ****   *******   ****        
                     ****     ****       ****  ****        
                     ****     **** **********  ****        
                      ****     **** ********    ****       
                     FRONTIERS IN SIMULATION TECHNOLOGY    
                                                           
                        C.J. Mundy, S. Balasubramanian,    
                     Ken Bagchi, J. Hutter, Ari Seitsonen  
                      IFW Kuo, T. Laino, J. VandeVondele   
                                 Version 1.0               

                                                           


 EWALD| Summation is done by:                                               SPME
 EWALD| Alpha parameter [       ANGSTROM^-1]                              0.4000
 EWALD| Real Space Cutoff [          ANGSTROM]                            8.4348
 EWALD| G-space max. Miller index                         80        80        80
 EWALD| Spline interpolation order                                             6

 FORCEFIELD| WARNING: A non Critical ForceField parameter is missing! CP2K GOES!
 FORCEFIELD| Non critical parameters are:Urey-Bradley,Torsions,Impropers, Opbends and 1-4
 FORCEFIELD| All missing parameters will not contribute to the potential energy!
 FORCEFIELD| Activate the print key FF_INFO to have a list of missing parameters

 CHARGE_INFO| Total Charge of the Classical System:                    -0.825808

 SPLINE_INFO| Generating 101926 splines for NONBONDED14 interactions 
              Due to 451 different atomic kinds
  ...10192  ...20384  ...30576  ...40768  ...50960  ...61152  ...71344  ...81536  ...91728  ...101920
 SPLINE_INFO| Number of unique splines computed:            301
 SPLINE_INFO| Done

 SPLINE_INFO| Generating 101926 splines for NONBONDED interactions 
              Due to 451 different atomic kinds
  ...10192  ...20384  ...30576  ...40768  ...50960  ...61152  ...71344  ...81536  ...91728  ...101920
 SPLINE_INFO| Number of unique splines computed:            301
 SPLINE_INFO| Done

 *******************************************************************************
 *******************************************************************************
 **                                                                           **
 **     #####                         ##              ##                      **
 **    ##   ##            ##          ##              ##                      **
 **   ##     ##                       ##            ######                    **
 **   ##     ##  ##   ##  ##   #####  ##  ##   ####   ##    #####    #####    **
 **   ##     ##  ##   ##  ##  ##      ## ##   ##      ##   ##   ##  ##   ##   **
 **   ##  ## ##  ##   ##  ##  ##      ####     ###    ##   ######   ######    **
 **    ##  ###   ##   ##  ##  ##      ## ##      ##   ##   ##       ##        **
 **     #######   #####   ##   #####  ##  ##  ####    ##    #####   ##        **
 **           ##                                                    ##        **
 **                                                                           **
 **                                                ... make the atoms dance   **
 **                                                                           **
 **            Copyright (C) by CP2K developers group (2000-2021)             **
 **                      J. Chem. Phys. 152, 194103 (2020)                    **
 **                                                                           **
 *******************************************************************************


 TOTAL NUMBERS AND MAXIMUM NUMBERS

  Total number of            - Atomic kinds:                                   5
                             - Atoms:                                         68
                             - Shell sets:                                   340
                             - Shells:                                       445
                             - Primitive Cartesian functions:                476
                             - Cartesian basis functions:                   1137
                             - Spherical basis functions:                   1067

  Maximum angular momentum of- Orbital basis functions:                        2
                             - Local part of the GTH pseudopotential:          2
                             - Non-local part of the GTH pseudopotential:      0


 SCF PARAMETERS         Density guess:                                   RESTART
                        --------------------------------------------------------
                        max_scf:                                              30
                        max_scf_history:                                       0
                        max_diis:                                              4
                        --------------------------------------------------------
                        eps_scf:                                        1.00E-06
                        eps_scf_history:                                0.00E+00
                        eps_diis:                                       1.00E-01
                        eps_eigval:                                     1.00E-05
                        --------------------------------------------------------
                        level_shift [a.u.]:                                 0.00
                        --------------------------------------------------------
                        Outer loop SCF in use 
                        No variables optimised in outer loop
                        eps_scf                                         1.00E-06
                        max_scf                                               20
                        No outer loop optimization
                        step_size                                       5.00E-01

 *******************************************************************************
 *******************************************************************************
 **                                                                           **
 **             #######  ##     ## ##     ## ##     ##                        **
 **            ##     ## ###   ### ###   ### ###   ###                        **
 **            ##     ## #### #### #### #### #### ####                        **
 **            ##     ## ## ### ## ## ### ## ## ### ##                        **
 **            ##  ## ## ##     ## ##     ## ##     ##                        **
 **            ##    ##  ##     ## ##     ## ##     ##  T.Laino and F.Mohamed **
 **             ##### ## ##     ## ##     ## ##     ##  2005 - 2015           **
 **                                                                           **
 **                                                     Calculation Started.. **
 *******************************************************************************
 *******************************************************************************

 MD_PAR| Molecular dynamics protocol (MD input parameters)
 MD_PAR| Ensemble type                                                       NVE
 MD_PAR| Number of time steps                                                  6
 MD_PAR| Time step [fs]                                                 1.000000
 MD_PAR| Temperature [K]                                              300.000000
 MD_PAR| Temperature tolerance [K]                                      0.000000
 MD_PAR| Print MD information every                                    1 step(s)
 MD_PAR| File type   Print frequency [steps]                          File names
 MD_PAR| Coordinates          1                           CBD_PHY-PBE0-pos-1.xyz
 MD_PAR| Velocities           1                           CBD_PHY-PBE0-vel-1.xyz
 MD_PAR| Energies             1                              CBD_PHY-PBE0-1.ener
 MD_PAR| Dump                20                           CBD_PHY-PBE0-1.restart

 ROT| Rotational analysis information
 ROT| Principal axes and moments of inertia [a.u.]
 ROT|                           1                   2                   3
 ROT| Eigenvalues      1.56283164001E+13   1.56407408488E+13   1.56663418804E+13
 ROT|      x              0.901637047331     -0.018153263569      0.432112362589
 ROT|      y              0.323714777231      0.690893927917     -0.646431994388
 ROT|      z             -0.286808957117      0.722728191915      0.628812040859
 ROT| Number of rotovibrational vectors                                        6

 DOF| Calculation of degrees of freedom
 DOF| Number of atoms                                                     167923
 DOF| Number of intramolecular constraints                                     0
 DOF| Number of intermolecular constraints                                     0
 DOF| Invariants (translations + rotations)                                    3
 DOF| Degrees of freedom                                                  503766

 DOF| Restraints information
 DOF| Number of intramolecular restraints                                      0
 DOF| Number of intermolecular restraints                                      0

 MD_VEL| Velocities initialization
 MD_VEL| Initial temperature [K]                                      300.000000
 MD_VEL| COM velocity            -0.0000000000     0.0000000000     0.0000000000

  Translating the system in order to center the QM fragment in the QM box.

 Number of electrons:                                                        180
 Number of occupied orbitals:                                                 90
 Number of molecular orbitals:                                                90

 Number of orbital functions:                                               1067
 Number of independent orbital functions:                                   1067

 Extrapolation method: initial_guess


 SCF WAVEFUNCTION OPTIMIZATION

  ----------------------------------- OT ---------------------------------------
  Minimizer      : DIIS                : direct inversion
                                         in the iterative subspace
                                         using   7 DIIS vectors
                                         safer DIIS on
  Preconditioner : FULL_ALL            : diagonalization, state selective
  Precond_solver : DEFAULT
  stepsize       :    0.15000000                  energy_gap     :    0.08000000
  eps_taylor     :   0.10000E-15                  max_taylor     :             4
  ----------------------------------- OT ---------------------------------------

  Step     Update method      Time    Convergence         Total energy    Change
  ------------------------------------------------------------------------------
  Decoupling Energy:                                               0.0370647021
  Recoupling Energy:                                              -0.0063741479
     1 OT DIIS     0.15E+00    4.7     0.00129057      -255.9257316521 -2.56E+02
  Decoupling Energy:                                               0.0370576004
  Recoupling Energy:                                              -0.0063740314
     2 OT DIIS     0.15E+00    0.7     0.00057761      -255.9419521977 -1.62E-02
  Decoupling Energy:                                               0.0369596417
  Recoupling Energy:                                              -0.0063730135
     3 OT DIIS     0.15E+00    0.7     0.00038348      -255.9451217318 -3.17E-03
  Decoupling Energy:                                               0.0369795470
  Recoupling Energy:                                              -0.0063732416
     4 OT DIIS     0.15E+00    0.7     0.00009866      -255.9458275768 -7.06E-04
  Decoupling Energy:                                               0.0369716948
  Recoupling Energy:                                              -0.0063731487
     5 OT DIIS     0.15E+00    0.7     0.00003992      -255.9458779686 -5.04E-05
  Decoupling Energy:                                               0.0369737640
  Recoupling Energy:                                              -0.0063731649
     6 OT DIIS     0.15E+00    0.7     0.00001793      -255.9458894170 -1.14E-05
  Decoupling Energy:                                               0.0369741808
  Recoupling Energy:                                              -0.0063731680
     7 OT DIIS     0.15E+00    0.7     0.00000621      -255.9458922938 -2.88E-06
  Decoupling Energy:                                               0.0369727127
  Recoupling Energy:                                              -0.0063731518
     8 OT DIIS     0.15E+00    0.6     0.00000242      -255.9458926328 -3.39E-07
  Decoupling Energy:                                               0.0369731061
  Recoupling Energy:                                              -0.0063731556
     9 OT DIIS     0.15E+00    0.7     0.00000111      -255.9458926822 -4.94E-08
  Decoupling Energy:                                               0.0369728228
  Recoupling Energy:                                              -0.0063731526
    10 OT DIIS     0.15E+00    0.7     0.00000048      -255.9458926924 -1.02E-08

  *** SCF run converged in    10 steps ***


  Electronic density on regular grids:       -179.9999999999        0.0000000001
  Core density on regular grids:              180.9999999999       -0.0000000001
  Total charge density on r-space grids:        1.0000000000
  Total charge density g-space grids:           1.0000000000

  Overlap energy of the core charge distribution:               0.00001951532734
  Self energy of the core charge distribution:               -615.71576003586028
  Core Hamiltonian energy:                                    191.01363220817859
  Hartree energy:                                             248.20663869015976
  Exchange-correlation energy:                                -61.38430761263356
  Hartree-Fock Exchange energy:                               -18.10821018492824
  QM/MM Electrostatic energy:                                   0.04209472735335

  Total energy:                                              -255.94589269240302

  outer SCF iter =    1 RMS gradient =   0.48E-06 energy =       -255.9458926924
  outer SCF loop converged in   1 iterations or   10 steps

  Decoupling Energy:                                               0.0369728028
  Recoupling Energy:                                              -0.0063731523

 ENERGY| Total FORCE_EVAL ( QMMM ) energy [a.u.]:          -1088.110859624476234

 MD_INI| MD initialization
 MD_INI| Potential energy [hartree]                          -0.108811085962E+04
 MD_INI| Total kinetic energy [hartree]                       0.239300084734E+03
 MD_INI| QM kinetic energy [hartree]                          0.106639360339E+00
 MD_INI| Total temperature [K]                                        300.000000
 MD_INI| QM temperature [K]                                           330.137318
 MD_INI| Cell volume [bohr^3]                                 1.137316355424E+07
 MD_INI| Cell volume [ang^3]                                  1.685328937712E+06
 MD_INI| Cell lengths [bohr]      2.24884969E+02  2.24884969E+02  2.24884969E+02
 MD_INI| Cell lengths [ang]       1.19004000E+02  1.19004000E+02  1.19004000E+02
 MD_INI| Cell angles [deg]        9.00000000E+01  9.00000000E+01  9.00000000E+01

  Translating the system in order to center the QM fragment in the QM box.

 Number of electrons:                                                        180
 Number of occupied orbitals:                                                 90
 Number of molecular orbitals:                                                90

 Number of orbital functions:                                               1067
 Number of independent orbital functions:                                   1067

 Extrapolation method: ASPC


 SCF WAVEFUNCTION OPTIMIZATION

  ----------------------------------- OT ---------------------------------------
  Minimizer      : DIIS                : direct inversion
                                         in the iterative subspace
                                         using   7 DIIS vectors
                                         safer DIIS on
  Preconditioner : FULL_ALL            : diagonalization, state selective
  Precond_solver : DEFAULT
  stepsize       :    0.15000000                  energy_gap     :    0.08000000
  eps_taylor     :   0.10000E-15                  max_taylor     :             4
  ----------------------------------- OT ---------------------------------------

  Step     Update method      Time    Convergence         Total energy    Change
  ------------------------------------------------------------------------------
  Decoupling Energy:                                               0.0370014667
  Recoupling Energy:                                              -0.0063734172
     1 OT DIIS     0.15E+00    2.5     0.00075899      -255.7182133708 -2.56E+02
  Decoupling Energy:                                               0.0370082385
  Recoupling Energy:                                              -0.0063735355
     2 OT DIIS     0.15E+00    0.6     0.00032685      -255.7237312495 -5.52E-03
  Decoupling Energy:                                               0.0370087411
  Recoupling Energy:                                              -0.0063735590
     3 OT DIIS     0.15E+00    0.7     0.00019068      -255.7247685802 -1.04E-03
  Decoupling Energy:                                               0.0370199882
  Recoupling Energy:                                              -0.0063736817
     4 OT DIIS     0.15E+00    0.6     0.00006054      -255.7249610173 -1.92E-04
  Decoupling Energy:                                               0.0370216762
  Recoupling Energy:                                              -0.0063737045
     5 OT DIIS     0.15E+00    0.7     0.00001954      -255.7249775820 -1.66E-05
  Decoupling Energy:                                               0.0370210005
  Recoupling Energy:                                              -0.0063736984
     6 OT DIIS     0.15E+00    0.7     0.00000817      -255.7249798404 -2.26E-06
  Decoupling Energy:                                               0.0370221929
  Recoupling Energy:                                              -0.0063737124
     7 OT DIIS     0.15E+00    0.7     0.00000308      -255.7249803024 -4.62E-07
  Decoupling Energy:                                               0.0370222382
  Recoupling Energy:                                              -0.0063737132
     8 OT DIIS     0.15E+00    0.7     0.00000136      -255.7249803797 -7.72E-08
  Decoupling Energy:                                               0.0370224658
  Recoupling Energy:                                              -0.0063737159
     9 OT DIIS     0.15E+00    0.7     0.00000058      -255.7249803954 -1.57E-08

  *** SCF run converged in     9 steps ***


  Electronic density on regular grids:       -180.0000000000        0.0000000000
  Core density on regular grids:              180.9999999999       -0.0000000001
  Total charge density on r-space grids:        0.9999999999
  Total charge density g-space grids:           0.9999999999

  Overlap energy of the core charge distribution:               0.00002422739645
  Self energy of the core charge distribution:               -615.71576003586028
  Core Hamiltonian energy:                                    191.21095001094594
  Hartree energy:                                             248.07774806126727
  Exchange-correlation energy:                                -61.42683492268294
  Hartree-Fock Exchange energy:                               -18.12283147683313
  QM/MM Electrostatic energy:                                   0.25172374036684

  Total energy:                                              -255.72498039539991

  outer SCF iter =    1 RMS gradient =   0.58E-06 energy =       -255.7249803954
  outer SCF loop converged in   1 iterations or    9 steps

  Decoupling Energy:                                               0.0370224944
  Recoupling Energy:                                              -0.0063737164

 ENERGY| Total FORCE_EVAL ( QMMM ) energy [a.u.]:          -1059.962356565007212

 MD| ***************************************************************************
 MD| Step number                                                               1
 MD| Time [fs]                                                          1.000000
 MD| Conserved quantity [hartree]                            -0.841461427174E+03
 MD| ---------------------------------------------------------------------------
 MD|                                          Instantaneous             Averages
 MD| CPU time per MD step [s]                     73.072018            73.072018
 MD| Energy drift per atom [K]           0.138202490868E+02   0.000000000000E+00
 MD| Potential energy [hartree]         -0.105996235657E+04  -0.105996235657E+04
 MD| Total kinetic energy [hartree]      0.218500929391E+03   0.218500929391E+03
 MD| QM kinetic energy [hartree]         0.121347265732E+00   0.121347265732E+00
 MD| Total temperature [K]                       273.925013           273.925013
 MD| QM temperature [K]                          375.670491           375.670491
 MD| ***************************************************************************

  Translating the system in order to center the QM fragment in the QM box.

 Number of electrons:                                                        180
 Number of occupied orbitals:                                                 90
 Number of molecular orbitals:                                                90

 Number of orbital functions:                                               1067
 Number of independent orbital functions:                                   1067

 Extrapolation method: ASPC


 SCF WAVEFUNCTION OPTIMIZATION

  ----------------------------------- OT ---------------------------------------
  Minimizer      : DIIS                : direct inversion
                                         in the iterative subspace
                                         using   7 DIIS vectors
                                         safer DIIS on
  Preconditioner : FULL_ALL            : diagonalization, state selective
  Precond_solver : DEFAULT
  stepsize       :    0.15000000                  energy_gap     :    0.08000000
  eps_taylor     :   0.10000E-15                  max_taylor     :             4
  ----------------------------------- OT ---------------------------------------

  Step     Update method      Time    Convergence         Total energy    Change
  ------------------------------------------------------------------------------
  Decoupling Energy:                                               0.0370781902
  Recoupling Energy:                                              -0.0063743357
     1 OT DIIS     0.15E+00    2.5     0.00029255      -255.3622522070 -2.55E+02
  Decoupling Energy:                                               0.0370714460
  Recoupling Energy:                                              -0.0063742686
     2 OT DIIS     0.15E+00    0.7     0.00012379      -255.3630879760 -8.36E-04
  Decoupling Energy:                                               0.0370747191
  Recoupling Energy:                                              -0.0063743003
     3 OT DIIS     0.15E+00    0.6     0.00005679      -255.3632552975 -1.67E-04
  Decoupling Energy:                                               0.0370720759
  Recoupling Energy:                                              -0.0063742776
     4 OT DIIS     0.15E+00    0.7     0.00001757      -255.3632740893 -1.88E-05
  Decoupling Energy:                                               0.0370725470
  Recoupling Energy:                                              -0.0063742816
     5 OT DIIS     0.15E+00    0.7     0.00000682      -255.3632756162 -1.53E-06
  Decoupling Energy:                                               0.0370729640
  Recoupling Energy:                                              -0.0063742866
     6 OT DIIS     0.15E+00    0.7     0.00000313      -255.3632758739 -2.58E-07
  Decoupling Energy:                                               0.0370729488
  Recoupling Energy:                                              -0.0063742866
     7 OT DIIS     0.15E+00    0.7     0.00000105      -255.3632759349 -6.10E-08
  Decoupling Energy:                                               0.0370730067
  Recoupling Energy:                                              -0.0063742873
     8 OT DIIS     0.15E+00    0.7     0.00000048      -255.3632759451 -1.02E-08

  *** SCF run converged in     8 steps ***


  Electronic density on regular grids:       -180.0000000000       -0.0000000000
  Core density on regular grids:              180.9999999999       -0.0000000001
  Total charge density on r-space grids:        0.9999999998
  Total charge density g-space grids:           0.9999999998

  Overlap energy of the core charge distribution:               0.00005088934842
  Self energy of the core charge distribution:               -615.71576003586028
  Core Hamiltonian energy:                                    191.44418618692845
  Hartree energy:                                             247.94136666769757
  Exchange-correlation energy:                                -61.47332450873186
  Hartree-Fock Exchange energy:                               -18.13880643427043
  QM/MM Electrostatic energy:                                   0.57901128980674

  Total energy:                                              -255.36327594508134

  outer SCF iter =    1 RMS gradient =   0.48E-06 energy =       -255.3632759451
  outer SCF loop converged in   1 iterations or    8 steps

  Decoupling Energy:                                               0.0370730235
  Recoupling Energy:                                              -0.0063742875

 ENERGY| Total FORCE_EVAL ( QMMM ) energy [a.u.]:          -1061.235329312740760

 MD| ***************************************************************************
 MD| Step number                                                               2
 MD| Time [fs]                                                          2.000000
 MD| Conserved quantity [hartree]                            -0.842817774708E+03
 MD| ---------------------------------------------------------------------------
 MD|                                          Instantaneous             Averages
 MD| CPU time per MD step [s]                     31.804638            52.438328
 MD| Energy drift per atom [K]           0.112696743309E+02   0.563483716543E+01
 MD| Potential energy [hartree]         -0.106123532931E+04  -0.106059884294E+04
 MD| Total kinetic energy [hartree]      0.218417554605E+03   0.218459241998E+03
 MD| QM kinetic energy [hartree]         0.111578080291E+00   0.116462673012E+00
 MD| Total temperature [K]                       273.820490           273.872751
 MD| QM temperature [K]                          345.426755           360.548623
 MD| ***************************************************************************

  Translating the system in order to center the QM fragment in the QM box.

 Number of electrons:                                                        180
 Number of occupied orbitals:                                                 90
 Number of molecular orbitals:                                                90

 Number of orbital functions:                                               1067
 Number of independent orbital functions:                                   1067

 Extrapolation method: ASPC


 SCF WAVEFUNCTION OPTIMIZATION

  ----------------------------------- OT ---------------------------------------
  Minimizer      : DIIS                : direct inversion
                                         in the iterative subspace
                                         using   7 DIIS vectors
                                         safer DIIS on
  Preconditioner : FULL_ALL            : diagonalization, state selective
  Precond_solver : DEFAULT
  stepsize       :    0.15000000                  energy_gap     :    0.08000000
  eps_taylor     :   0.10000E-15                  max_taylor     :             4
  ----------------------------------- OT ---------------------------------------

  Step     Update method      Time    Convergence         Total energy    Change
  ------------------------------------------------------------------------------
  Decoupling Energy:                                               0.0371231294
  Recoupling Energy:                                              -0.0063748339
     1 OT DIIS     0.15E+00    2.5     0.00057317      -254.8840254873 -2.55E+02
  Decoupling Energy:                                               0.0371264035
  Recoupling Energy:                                              -0.0063748790
     2 OT DIIS     0.15E+00    0.7     0.00022568      -254.8871518480 -3.13E-03
  Decoupling Energy:                                               0.0371270614
  Recoupling Energy:                                              -0.0063748842
     3 OT DIIS     0.15E+00    0.6     0.00008225      -254.8877073241 -5.55E-04
  Decoupling Energy:                                               0.0371223381
  Recoupling Energy:                                              -0.0063748374
     4 OT DIIS     0.15E+00    0.7     0.00002747      -254.8877575543 -5.02E-05
  Decoupling Energy:                                               0.0371233152
  Recoupling Energy:                                              -0.0063748478
     5 OT DIIS     0.15E+00    0.7     0.00001036      -254.8877613459 -3.79E-06
  Decoupling Energy:                                               0.0371231624
  Recoupling Energy:                                              -0.0063748451
     6 OT DIIS     0.15E+00    0.7     0.00000440      -254.8877619308 -5.85E-07
  Decoupling Energy:                                               0.0371230826
  Recoupling Energy:                                              -0.0063748446
     7 OT DIIS     0.15E+00    0.6     0.00000136      -254.8877620210 -9.02E-08
  Decoupling Energy:                                               0.0371230853
  Recoupling Energy:                                              -0.0063748447
     8 OT DIIS     0.15E+00    0.6     0.00000059      -254.8877620318 -1.08E-08

  *** SCF run converged in     8 steps ***


  Electronic density on regular grids:       -180.0000000003       -0.0000000003
  Core density on regular grids:              180.9999999999       -0.0000000001
  Total charge density on r-space grids:        0.9999999996
  Total charge density g-space grids:           0.9999999996

  Overlap energy of the core charge distribution:               0.00005124532745
  Self energy of the core charge distribution:               -615.71576003586028
  Core Hamiltonian energy:                                    191.49125704448585
  Hartree energy:                                             247.90728194471166
  Exchange-correlation energy:                                -61.48094642824385
  Hartree-Fock Exchange energy:                               -18.14140183368521
  QM/MM Electrostatic energy:                                   1.05175603146180

  Total energy:                                              -254.88776203180262

  outer SCF iter =    1 RMS gradient =   0.59E-06 energy =       -254.8877620318
  outer SCF loop converged in   1 iterations or    8 steps

  Decoupling Energy:                                               0.0371230853
  Recoupling Energy:                                              -0.0063748446

 ENERGY| Total FORCE_EVAL ( QMMM ) energy [a.u.]:          -1082.045340496029439

 MD| ***************************************************************************
 MD| Step number                                                               3
 MD| Time [fs]                                                          3.000000
 MD| Conserved quantity [hartree]                            -0.846392350567E+03
 MD| ---------------------------------------------------------------------------
 MD|                                          Instantaneous             Averages
 MD| CPU time per MD step [s]                     31.900026            45.592227
 MD| Energy drift per atom [K]           0.454778135874E+01   0.527248522987E+01
 MD| Potential energy [hartree]         -0.108204534050E+04  -0.106774767546E+04
 MD| Total kinetic energy [hartree]      0.235652989929E+03   0.224190491308E+03
 MD| QM kinetic energy [hartree]         0.117355725395E+00   0.116760357139E+00
 MD| Total temperature [K]                       295.427798           281.057767
 MD| QM temperature [K]                          363.313361           361.470203
 MD| ***************************************************************************

  Translating the system in order to center the QM fragment in the QM box.

 Number of electrons:                                                        180
 Number of occupied orbitals:                                                 90
 Number of molecular orbitals:                                                90

 Number of orbital functions:                                               1067
 Number of independent orbital functions:                                   1067

 Extrapolation method: ASPC


 SCF WAVEFUNCTION OPTIMIZATION

  ----------------------------------- OT ---------------------------------------
  Minimizer      : DIIS                : direct inversion
                                         in the iterative subspace
                                         using   7 DIIS vectors
                                         safer DIIS on
  Preconditioner : FULL_ALL            : diagonalization, state selective
  Precond_solver : DEFAULT
  stepsize       :    0.15000000                  energy_gap     :    0.08000000
  eps_taylor     :   0.10000E-15                  max_taylor     :             4
  ----------------------------------- OT ---------------------------------------

  Step     Update method      Time    Convergence         Total energy    Change
  ------------------------------------------------------------------------------
  Decoupling Energy:                                               0.0371655252
  Recoupling Energy:                                              -0.0063753289
     1 OT DIIS     0.15E+00    2.5     0.00026669      -254.3373015304 -2.54E+02
  Decoupling Energy:                                               0.0371742271
  Recoupling Energy:                                              -0.0063754096
     2 OT DIIS     0.15E+00    0.7     0.00010699      -254.3379924519 -6.91E-04
  Decoupling Energy:                                               0.0371691789
  Recoupling Energy:                                              -0.0063753577
     3 OT DIIS     0.15E+00    0.6     0.00004036      -254.3381206086 -1.28E-04
  Decoupling Energy:                                               0.0371714561
  Recoupling Energy:                                              -0.0063753810
     4 OT DIIS     0.15E+00    0.7     0.00001287      -254.3381305803 -9.97E-06
  Decoupling Energy:                                               0.0371702860
  Recoupling Energy:                                              -0.0063753696
     5 OT DIIS     0.15E+00    0.6     0.00000542      -254.3381314375 -8.57E-07
  Decoupling Energy:                                               0.0371705218
  Recoupling Energy:                                              -0.0063753713
     6 OT DIIS     0.15E+00    0.7     0.00000188      -254.3381315774 -1.40E-07
  Decoupling Energy:                                               0.0371705433
  Recoupling Energy:                                              -0.0063753718
     7 OT DIIS     0.15E+00    0.7     0.00000064      -254.3381315960 -1.86E-08

  *** SCF run converged in     7 steps ***


  Electronic density on regular grids:       -179.9999999999        0.0000000001
  Core density on regular grids:              180.9999999999       -0.0000000001
  Total charge density on r-space grids:        1.0000000000
  Total charge density g-space grids:           1.0000000000

  Overlap energy of the core charge distribution:               0.00002358474070
  Self energy of the core charge distribution:               -615.71576003586028
  Core Hamiltonian energy:                                    191.34733286357471
  Hartree energy:                                             247.97609207405071
  Exchange-correlation energy:                                -61.44937138971176
  Hartree-Fock Exchange energy:                               -18.13041954971895
  QM/MM Electrostatic energy:                                   1.63397085692038

  Total energy:                                              -254.33813159600453

  outer SCF iter =    1 RMS gradient =   0.64E-06 energy =       -254.3381315960
  outer SCF loop converged in   1 iterations or    7 steps

  Decoupling Energy:                                               0.0371704730
  Recoupling Energy:                                              -0.0063753710

 ENERGY| Total FORCE_EVAL ( QMMM ) energy [a.u.]:          -1079.714053550539120

 MD| ***************************************************************************
 MD| Step number                                                               4
 MD| Time [fs]                                                          4.000000
 MD| Conserved quantity [hartree]                            -0.842113597732E+03
 MD| ---------------------------------------------------------------------------
 MD|                                          Instantaneous             Averages
 MD| CPU time per MD step [s]                     31.108306            41.971247
 MD| Energy drift per atom [K]           0.125938600381E+02   0.710282893194E+01
 MD| Potential energy [hartree]         -0.107971405355E+04  -0.107073926998E+04
 MD| Total kinetic energy [hartree]      0.237600455819E+03   0.227542982436E+03
 MD| QM kinetic energy [hartree]         0.148327723573E+00   0.124652198748E+00
 MD| Total temperature [K]                       297.869250           285.260638
 MD| QM temperature [K]                          459.197399           385.902002
 MD| ***************************************************************************

  Translating the system in order to center the QM fragment in the QM box.

 Number of electrons:                                                        180
 Number of occupied orbitals:                                                 90
 Number of molecular orbitals:                                                90

 Number of orbital functions:                                               1067
 Number of independent orbital functions:                                   1067

 Extrapolation method: ASPC


 SCF WAVEFUNCTION OPTIMIZATION

  ----------------------------------- OT ---------------------------------------
  Minimizer      : DIIS                : direct inversion
                                         in the iterative subspace
                                         using   7 DIIS vectors
                                         safer DIIS on
  Preconditioner : FULL_ALL            : diagonalization, state selective
  Precond_solver : DEFAULT
  stepsize       :    0.15000000                  energy_gap     :    0.08000000
  eps_taylor     :   0.10000E-15                  max_taylor     :             4
  ----------------------------------- OT ---------------------------------------

  Step     Update method      Time    Convergence         Total energy    Change
  ------------------------------------------------------------------------------
  Decoupling Energy:                                               0.0372101283
  Recoupling Energy:                                              -0.0063758436
     1 OT DIIS     0.15E+00    2.5     0.00032226      -253.7449243617 -2.54E+02
  Decoupling Energy:                                               0.0372072138
  Recoupling Energy:                                              -0.0063758022
     2 OT DIIS     0.15E+00    0.7     0.00013200      -253.7458473083 -9.23E-04
  Decoupling Energy:                                               0.0372093380
  Recoupling Energy:                                              -0.0063758210
     3 OT DIIS     0.15E+00    0.7     0.00006255      -253.7460069877 -1.60E-04
  Decoupling Energy:                                               0.0372088035
  Recoupling Energy:                                              -0.0063758155
     4 OT DIIS     0.15E+00    0.6     0.00002440      -253.7460382481 -3.13E-05
  Decoupling Energy:                                               0.0372096081
  Recoupling Energy:                                              -0.0063758218
     5 OT DIIS     0.15E+00    0.7     0.00000523      -253.7460407944 -2.55E-06
  Decoupling Energy:                                               0.0372092938
  Recoupling Energy:                                              -0.0063758192
     6 OT DIIS     0.15E+00    0.7     0.00000251      -253.7460409379 -1.44E-07
  Decoupling Energy:                                               0.0372092982
  Recoupling Energy:                                              -0.0063758191
     7 OT DIIS     0.15E+00    0.7     0.00000089      -253.7460409700 -3.20E-08

  *** SCF run converged in     7 steps ***


  Electronic density on regular grids:       -180.0000000000       -0.0000000000
  Core density on regular grids:              180.9999999999       -0.0000000001
  Total charge density on r-space grids:        0.9999999998
  Total charge density g-space grids:           0.9999999998

  Overlap energy of the core charge distribution:               0.00001841798305
  Self energy of the core charge distribution:               -615.71576003586028
  Core Hamiltonian energy:                                    191.22476272192415
  Hartree energy:                                             248.04793621219005
  Exchange-correlation energy:                                -61.41799372689621
  Hartree-Fock Exchange energy:                               -18.11952358442004
  QM/MM Electrostatic energy:                                   2.23451902509146

  Total energy:                                              -253.74604096998786

  outer SCF iter =    1 RMS gradient =   0.89E-06 energy =       -253.7460409700
  outer SCF loop converged in   1 iterations or    7 steps

  Decoupling Energy:                                               0.0372093252
  Recoupling Energy:                                              -0.0063758193

 ENERGY| Total FORCE_EVAL ( QMMM ) energy [a.u.]:          -1094.307010817588889

 MD| ***************************************************************************
 MD| Step number                                                               5
 MD| Time [fs]                                                          5.000000
 MD| Conserved quantity [hartree]                            -0.848389415665E+03
 MD| ---------------------------------------------------------------------------
 MD|                                          Instantaneous             Averages
 MD| CPU time per MD step [s]                     31.318862            39.840770
 MD| Energy drift per atom [K]           0.792354596965E+00   0.584073406494E+01
 MD| Potential energy [hartree]         -0.109430701082E+04  -0.107545281815E+04
 MD| Total kinetic energy [hartree]      0.245917595152E+03   0.231217904979E+03
 MD| QM kinetic energy [hartree]         0.157564970255E+00   0.131234753049E+00
 MD| Total temperature [K]                       308.296082           289.867726
 MD| QM temperature [K]                          487.794343           406.280470
 MD| ***************************************************************************

  Translating the system in order to center the QM fragment in the QM box.

 Number of electrons:                                                        180
 Number of occupied orbitals:                                                 90
 Number of molecular orbitals:                                                90

 Number of orbital functions:                                               1067
 Number of independent orbital functions:                                   1067

 Extrapolation method: ASPC


 SCF WAVEFUNCTION OPTIMIZATION

  ----------------------------------- OT ---------------------------------------
  Minimizer      : DIIS                : direct inversion
                                         in the iterative subspace
                                         using   7 DIIS vectors
                                         safer DIIS on
  Preconditioner : FULL_ALL            : diagonalization, state selective
  Precond_solver : DEFAULT
  stepsize       :    0.15000000                  energy_gap     :    0.08000000
  eps_taylor     :   0.10000E-15                  max_taylor     :             4
  ----------------------------------- OT ---------------------------------------

  Step     Update method      Time    Convergence         Total energy    Change
  ------------------------------------------------------------------------------
  Decoupling Energy:                                               0.0372440262
  Recoupling Energy:                                              -0.0063762180
     1 OT DIIS     0.15E+00    2.6     0.00049001      -253.1925127405 -2.53E+02
  Decoupling Energy:                                               0.0372419904
  Recoupling Energy:                                              -0.0063762269
     2 OT DIIS     0.15E+00    0.7     0.00019230      -253.1946646302 -2.15E-03
  Decoupling Energy:                                               0.0372396532
  Recoupling Energy:                                              -0.0063761950
     3 OT DIIS     0.15E+00    0.7     0.00008087      -253.1950222085 -3.58E-04
  Decoupling Energy:                                               0.0372398641
  Recoupling Energy:                                              -0.0063761986
     4 OT DIIS     0.15E+00    0.6     0.00002270      -253.1950811958 -5.90E-05
  Decoupling Energy:                                               0.0372387908
  Recoupling Energy:                                              -0.0063761870
     5 OT DIIS     0.15E+00    0.7     0.00000845      -253.1950837995 -2.60E-06
  Decoupling Energy:                                               0.0372394756
  Recoupling Energy:                                              -0.0063761928
     6 OT DIIS     0.15E+00    0.7     0.00000289      -253.1950841627 -3.63E-07
  Decoupling Energy:                                               0.0372392243
  Recoupling Energy:                                              -0.0063761904
     7 OT DIIS     0.15E+00    0.7     0.00000086      -253.1950842038 -4.11E-08

  *** SCF run converged in     7 steps ***


  Electronic density on regular grids:       -180.0000000000       -0.0000000000
  Core density on regular grids:              180.9999999999       -0.0000000001
  Total charge density on r-space grids:        0.9999999998
  Total charge density g-space grids:           0.9999999998

  Overlap energy of the core charge distribution:               0.00001843296355
  Self energy of the core charge distribution:               -615.71576003586028
  Core Hamiltonian energy:                                    191.21897886105046
  Hartree energy:                                             248.05851231680072
  Exchange-correlation energy:                                -61.40903373553675
  Hartree-Fock Exchange energy:                               -18.11645552714440
  QM/MM Electrostatic energy:                                   2.76865548391010

  Total energy:                                              -253.19508420381663

  outer SCF iter =    1 RMS gradient =   0.86E-06 energy =       -253.1950842038
  outer SCF loop converged in   1 iterations or    7 steps

  Decoupling Energy:                                               0.0372392171
  Recoupling Energy:                                              -0.0063761902

 ENERGY| Total FORCE_EVAL ( QMMM ) energy [a.u.]:          -1057.339964843256439

 MD| ***************************************************************************
 MD| Step number                                                               6
 MD| Time [fs]                                                          6.000000
 MD| Conserved quantity [hartree]                            -0.842900323542E+03
 MD| ---------------------------------------------------------------------------
 MD|                                          Instantaneous             Averages
 MD| CPU time per MD step [s]                     31.155762            38.393269
 MD| Energy drift per atom [K]           0.111144434865E+02   0.671968563521E+01
 MD| Potential energy [hartree]         -0.105733996484E+04  -0.107243400926E+04
 MD| Total kinetic energy [hartree]      0.214439641301E+03   0.228421527699E+03
 MD| QM kinetic energy [hartree]         0.141132940189E+00   0.132884450906E+00
 MD| Total temperature [K]                       268.833555           286.362031
 MD| QM temperature [K]                          436.923573           411.387654
 MD| ***************************************************************************

 -------------------------------------------------------------------------------
 -                                                                             -
 -                                DBCSR STATISTICS                             -
 -                                                                             -
 -------------------------------------------------------------------------------
 COUNTER                                    TOTAL       BLAS       SMM       ACC
 flops     9 x    26 x    26              6217848     100.0%      0.0%      0.0%
 flops     9 x    26 x    32              8386560     100.0%      0.0%      0.0%
 flops     9 x    32 x    26              8386560     100.0%      0.0%      0.0%
 flops     9 x    26 x    66             11675664     100.0%      0.0%      0.0%
 flops    26 x    26 x    26             13709280     100.0%      0.0%      0.0%
 flops     9 x    26 x    62             21936096     100.0%      0.0%      0.0%
 flops    62 x    26 x    26             23470720     100.0%      0.0%      0.0%
 flops     9 x    32 x    66             28740096     100.0%      0.0%      0.0%
 flops     9 x    32 x    32             29159424     100.0%      0.0%      0.0%
 flops     9 x    26 x    71             29307096     100.0%      0.0%      0.0%
 flops    22 x    26 x    26             32272240     100.0%      0.0%      0.0%
 flops    26 x    26 x    32             33745920     100.0%      0.0%      0.0%
 flops    26 x    32 x    26             33745920     100.0%      0.0%      0.0%
 flops    32 x    26 x    26             33745920     100.0%      0.0%      0.0%
 flops    44 x    26 x    26             49969920     100.0%      0.0%      0.0%
 flops     9 x    32 x    62             53996544     100.0%      0.0%      0.0%
 flops    62 x    26 x    32             57774080     100.0%      0.0%      0.0%
 flops    62 x    32 x    26             57774080     100.0%      0.0%      0.0%
 flops    22 x    26 x    32             61501440     100.0%      0.0%      0.0%
 flops    22 x    32 x    26             61501440     100.0%      0.0%      0.0%
 flops    26 x    26 x    66             61837776     100.0%      0.0%      0.0%
 flops     9 x    32 x    71             72140544     100.0%      0.0%      0.0%
 flops    62 x    26 x    66             80432352     100.0%      0.0%      0.0%
 flops    32 x    32 x    26             83066880     100.0%      0.0%      0.0%
 flops    26 x    32 x    32             83066880     100.0%      0.0%      0.0%
 flops    32 x    26 x    32             83066880     100.0%      0.0%      0.0%
 flops    22 x    26 x    66             85621536     100.0%      0.0%      0.0%
 flops    40 x    26 x    26             90854400     100.0%      0.0%      0.0%
 flops    26 x    26 x    62            116180064     100.0%      0.0%      0.0%
 flops    44 x    26 x    32            123002880     100.0%      0.0%      0.0%
 flops    44 x    32 x    26            123002880     100.0%      0.0%      0.0%
 flops    62 x    32 x    32            142213120     100.0%      0.0%      0.0%
 flops    62 x    26 x    62            151115328     100.0%      0.0%      0.0%
 flops    26 x    32 x    66            152216064     100.0%      0.0%      0.0%
 flops    32 x    26 x    66            152216064     100.0%      0.0%      0.0%
 flops    26 x    26 x    71            155219064     100.0%      0.0%      0.0%
 flops    22 x    26 x    62            160864704     100.0%      0.0%      0.0%
 flops     9 x     9 x    26            165405240     100.0%      0.0%      0.0%
 flops    44 x    26 x    66            171243072     100.0%      0.0%      0.0%
 flops    22 x    32 x    32            173465600     100.0%      0.0%      0.0%
 flops    62 x    32 x    66            197987328     100.0%      0.0%      0.0%
 flops    62 x    26 x    71            201893328     100.0%      0.0%      0.0%
 flops    32 x    32 x    32            204472320     100.0%      0.0%      0.0%
 flops    22 x    32 x    66            210760704     100.0%      0.0%      0.0%
 flops    31 x    26 x    26            211236480     100.0%      0.0%      0.0%
 flops    22 x    26 x    71            214918704     100.0%      0.0%      0.0%
 flops    40 x    32 x    26            223641600     100.0%      0.0%      0.0%
 flops    40 x    26 x    32            223641600     100.0%      0.0%      0.0%
 flops    26 x    32 x    62            285981696     100.0%      0.0%      0.0%
 flops    32 x    26 x    62            285981696     100.0%      0.0%      0.0%
 flops    44 x    32 x    32            302776320     100.0%      0.0%      0.0%
 flops    40 x    26 x    66            311351040     100.0%      0.0%      0.0%
 flops    44 x    26 x    62            321729408     100.0%      0.0%      0.0%
 flops    62 x    32 x    62            371976192     100.0%      0.0%      0.0%
 flops    32 x    32 x    66            374685696     100.0%      0.0%      0.0%
 flops    26 x    32 x    71            382077696     100.0%      0.0%      0.0%
 flops    32 x    26 x    71            382077696     100.0%      0.0%      0.0%
 flops    22 x    32 x    62            395974656     100.0%      0.0%      0.0%
 flops     9 x     9 x    32            407151360     100.0%      0.0%      0.0%
 flops    22 x     9 x    26            415855440     100.0%      0.0%      0.0%
 flops     9 x    22 x    26            416576160     100.0%      0.0%      0.0%
 flops    44 x    32 x    66            421521408     100.0%      0.0%      0.0%
 flops    44 x    26 x    71            429837408     100.0%      0.0%      0.0%
 flops    62 x    32 x    71            496968192     100.0%      0.0%      0.0%
 flops    31 x    32 x    26            519966720     100.0%      0.0%      0.0%
 flops    31 x    26 x    32            519966720     100.0%      0.0%      0.0%
 flops    22 x    32 x    71            529030656     100.0%      0.0%      0.0%
 flops    40 x    32 x    32            550502400     100.0%      0.0%      0.0%
 flops    40 x    26 x    62            584962560     100.0%      0.0%      0.0%
 flops    32 x    32 x    62            703954944     100.0%      0.0%      0.0%
 flops    31 x    26 x    66            723891168     100.0%      0.0%      0.0%
 flops    40 x    32 x    66            766402560     100.0%      0.0%      0.0%
 flops    40 x    26 x    71            781522560     100.0%      0.0%      0.0%
 flops    44 x    32 x    62            791949312     100.0%      0.0%      0.0%
 flops     9 x    26 x     9            802701900     100.0%      0.0%      0.0%
 flops    32 x    32 x    71            940498944     100.0%      0.0%      0.0%
 flops    22 x     9 x    32           1023644160     100.0%      0.0%      0.0%
 flops     9 x    22 x    32           1025418240     100.0%      0.0%      0.0%
 flops    44 x    32 x    71           1058061312     100.0%      0.0%      0.0%
 flops    22 x    22 x    26           1109908800     100.0%      0.0%      0.0%
 flops    31 x    32 x    32           1279918080     100.0%      0.0%      0.0%
 flops    31 x    26 x    62           1360037952     100.0%      0.0%      0.0%
 flops    40 x    32 x    62           1439907840     100.0%      0.0%      0.0%
 flops    31 x    32 x    66           1781885952     100.0%      0.0%      0.0%
 flops    31 x    26 x    71           1817039952     100.0%      0.0%      0.0%
 flops    40 x    32 x    71           1923747840     100.0%      0.0%      0.0%
 flops     9 x    32 x     9           1975881600     100.0%      0.0%      0.0%
 flops    22 x    26 x     9           2081079000     100.0%      0.0%      0.0%
 flops     9 x    26 x    22           2081079000     100.0%      0.0%      0.0%
 flops    22 x    22 x    32           2732083200     100.0%      0.0%      0.0%
 flops    31 x    32 x    62           3347785728     100.0%      0.0%      0.0%
 flops    31 x    32 x    71           4472713728     100.0%      0.0%      0.0%
 flops    22 x    32 x     9           5122656000     100.0%      0.0%      0.0%
 flops     9 x    32 x    22           5122656000     100.0%      0.0%      0.0%
 flops    22 x    26 x    22           5395390000     100.0%      0.0%      0.0%
 flops    22 x    32 x    22          13280960000     100.0%      0.0%      0.0%
 flops inhomo. stacks                           0       0.0%      0.0%      0.0%
 flops total                        78.421527E+09     100.0%      0.0%      0.0%
 flops max/rank                      2.190967E+09     100.0%      0.0%      0.0%
 matmuls inhomo. stacks                         0       0.0%      0.0%      0.0%
 matmuls total                            3239658     100.0%      0.0%      0.0%
 number of processed stacks               1473012     100.0%      0.0%      0.0%
 average stack size                                     2.2       0.0       0.0
 marketing flops                    85.671830E+09
 -------------------------------------------------------------------------------
 # multiplications                           1286
 max memory usage/rank               1.728115E+09
 # max total images/rank                        1
 # max 3D layers                                1
 # MPI messages exchanged                 9876480
 MPI messages size (bytes):
  total size                        55.868084E+09
  min size                           0.000000E+00
  max size                          40.328000E+03
  average size                       5.656680E+03
 MPI breakdown and total messages size (bytes):
             size <=      128             7720425                        0
       128 < size <=     8192              143415               1032608160
      8192 < size <=    32768             1181880              24032423520
     32768 < size <=   131072              830760              30802883160
    131072 < size <=  4194304                   0                        0
   4194304 < size <= 16777216                   0                        0
  16777216 < size                               0                        0
 -------------------------------------------------------------------------------
 -                                                                             -
 -                      DBCSR MESSAGE PASSING PERFORMANCE                      -
 -                                                                             -
 -------------------------------------------------------------------------------
 ROUTINE             CALLS      AVE VOLUME [Bytes]
 MP_Bcast               97                     12.
 MP_Allreduce         6942                      9.
 MP_Alltoall          5344                  89337.
 MP_ISend            82276                   5098.
 MP_IRecv            82276                   4875.
 -------------------------------------------------------------------------------

 -------------------------------------------------------------------------------
 -                                                                             -
 -                                GRID STATISTICS                              -
 -                                                                             -
 -------------------------------------------------------------------------------
 LP    KERNEL             BACKEND                              COUNT     PERCENT
 2     collocate ortho    REF                                1126269      18.48%
 2     integrate ortho    REF                                1106014      18.15%
 1     collocate ortho    REF                                 943978      15.49%
 1     integrate ortho    REF                                 870340      14.28%
 3     integrate ortho    REF                                 570062       9.35%
 3     collocate ortho    REF                                 500530       8.21%
 0     collocate ortho    REF                                 281245       4.61%
 0     integrate ortho    REF                                 249988       4.10%
 0     collocate general  REF                                 121856       2.00%
 1     integrate general  REF                                 121856       2.00%
 4     integrate ortho    REF                                 121240       1.99%
 4     collocate ortho    REF                                  73823       1.21%
 5     integrate ortho    REF                                   8201       0.13%
 -------------------------------------------------------------------------------

 MEMORY| Estimated peak process memory [MiB]                                1721

 -------------------------------------------------------------------------------
 -                                                                             -
 -                         MESSAGE PASSING PERFORMANCE                         -
 -                                                                             -
 -------------------------------------------------------------------------------

 ROUTINE             CALLS      AVE VOLUME [Bytes]
 MP_Group                8
 MP_Bcast             6942               10565501.
 MP_Allreduce         2477                1659355.
 MP_Sync               437
 MP_Alltoall          1344                4199989.
 MP_ISendRecv       105315                  30099.
 MP_Wait            124950
 MP_comm_split          21
 MP_ISend            17927                 105005.
 MP_IRecv            18200                 103127.
 MP_Recv                98                  51216.
 -------------------------------------------------------------------------------


 -------------------------------------------------------------------------------
 -                                                                             -
 -                           R E F E R E N C E S                               -
 -                                                                             -
 -------------------------------------------------------------------------------
 
 CP2K version 8.2, the CP2K developers group (2021).
 CP2K is freely available from https://www.cp2k.org/ .

 Kuehne,Thomas D.; Iannuzzi,Marcella; Del Ben,Mauro;
 Rybkin,Vladimir V.; Seewald,Patrick; Stein,Frederick; Laino,Teodoro;
 Khaliullin,Rustam Z.; Schuett,Ole; Schiffmann,Florian; Golze,Dorothea;
 Wilhelm,Jan; Chulkov,Sergey; Bani-Hashemian,Mohammad Hossein;
 Weber,Valery; Borstnik,Urban; Taillefumier,Mathieu;
 Jakobovits,Alice Shoshana; Lazzaro,Alfio; Pabst,Hans; Mueller,Tiziano;
 Schade,Robert; Guidon,Manuel; Andermatt,Samuel; Holmberg,Nico;
 Schenter,Gregory K.; Hehn,Anna; Bussy,Augustin; Belleflamme,Fabian;
 Tabacchi,Gloria; Gloess,Andreas; Lass,Michael; Bethune,Iain;
 Mundy,Christopher J.; Plessl,Christian; Watkins,Matt;
 VandeVondele,Joost; Krack,Matthias; Hutter,Juerg. 
 The Journal of Chemical Physics, 152 (19), (2020). 
 CP2K: An electronic structure and molecular dynamics software package -
 Quickstep: Efficient and accurate electronic structure calculations.
 https://doi.org/10.1063/5.0007045

 Schuett, Ole; Messmer, Peter; Hutter, Juerg; VandeVondele, Joost. 
 Electronic Structure Calculations on Graphics Processing Units, John
 Wiley & Sons, Ltd, 173-190 (2016). 
 GPU-Accelerated Sparse Matrix-Matrix Multiplication for
 Linear Scaling Density Functional Theory.
 https://doi.org/10.1002/9781118670712.ch8

 Borstnik, U; VandeVondele, J; Weber, V; Hutter, J. 
 PARALLEL COMPUTING, 40 (5-6), 47-58 (2014). 
 Sparse matrix multiplication: The distributed block-compressed sparse
 row library.
 https://doi.org/10.1016/j.parco.2014.03.012

 Hutter, J; Iannuzzi, M; Schiffmann, F; VandeVondele, J. 
 WIREs Comput Mol Sci., 4 (1), 15-25 (2014). 
 CP2K: atomistic simulations of condensed matter systems.
 https://doi.org/10.1002/wcms.1159

 Marek, A; Blum, V; Johanni, R; Havu, V; Lang, B; Auckenthaler, T;
 Heinecke, A; Bungartz, H; Lederer, H. 
 Journal of Physics: Condensed Matter, 26 (21), (2014). 
 The ELPA library: scalable parallel eigenvalue solutions for
 electronic structure
 theory and computational science.
 https://doi.org/10.1088/0953-8984/26/21/213201

 Guidon, M; Hutter, J; VandeVondele, J. 
 JOURNAL OF CHEMICAL THEORY AND COMPUTATION, 5 (11), 3010-3021 (2009). 
 Robust Periodic Hartree-Fock Exchange for Large-Scale Simulations Using
 Gaussian Basis Sets.
 https://doi.org/10.1021/ct900494g

 Guidon, M; Schiffmann, F; Hutter, J; VandeVondele, J. 
 JOURNAL OF CHEMICAL PHYSICS, 128 (21), 214104 (2008). 
 Ab initio molecular dynamics using hybrid density functionals.
 https://doi.org/10.1063/1.2931945

 Kuhne, TD; Krack, M; Mohamed, FR; Parrinello, M. 
 PHYSICAL REVIEW LETTERS, 98 (6), 066401 (2007). 
 Efficient and accurate Car-Parrinello-like approach to
 Born-Oppenheimer molecular dynamics.
 https://doi.org/10.1103/PhysRevLett.98.066401

 Laino, T; Mohamed, F; Laio, A; Parrinello, M. 
 JOURNAL OF CHEMICAL THEORY AND COMPUTATION, 2 (5), 1370-1378 (2006). 
 An efficient linear-scaling electrostatic coupling for treating
 periodic boundary conditions in QM/MM simulations.
 https://doi.org/10.1021/ct6001169

 Laino, T; Mohamed, F; Laio, A; Parrinello, M. 
 JOURNAL OF CHEMICAL THEORY AND COMPUTATION, 1 (6), 1176-1184 (2005). 
 An efficient real space multigrid QM/MM electrostatic coupling.
 https://doi.org/10.1021/ct050123f

 Krack, M. 
 THEORETICAL CHEMISTRY ACCOUNTS, 114 (1-3), 145-152 (2005). 
 Pseudopotentials for H to Kr optimized for gradient-corrected
 exchange-correlation functionals.
 https://doi.org/10.1007/s00214-005-0655-y

 VandeVondele, J; Krack, M; Mohamed, F; Parrinello, M; Chassaing, T;
 Hutter, J. COMPUTER PHYSICS COMMUNICATIONS, 167 (2), 103-128 (2005). 
 QUICKSTEP: Fast and accurate density functional calculations using a
 mixed Gaussian and plane waves approach.
 https://doi.org/10.1016/j.cpc.2004.12.014

 Frigo, M; Johnson, SG. 
 PROCEEDINGS OF THE IEEE, 93 (2), 216-231 (2005). 
 The design and implementation of FFTW3.
 https://doi.org/10.1109/JPROC.2004.840301

 Kolafa, J. 
 JOURNAL OF COMPUTATIONAL CHEMISTRY, 25 (3), 335-342 (2004). 
 Time-reversible always stable predictor-corrector method for molecular dynamics of polarizable molecules.
 https://doi.org/10.1002/jcc.10385

 VandeVondele, J; Hutter, J. 
 JOURNAL OF CHEMICAL PHYSICS, 118 (10), 4365-4369 (2003). 
 An efficient orbital transformation method for electronic structure
 calculations.
 https://doi.org/10.1063/1.1543154

 Hartwigsen, C; Goedecker, S; Hutter, J. 
 PHYSICAL REVIEW B, 58 (7), 3641-3662 (1998). 
 Relativistic separable dual-space Gaussian pseudopotentials from H to Rn.
 https://doi.org/10.1103/PhysRevB.58.3641

 Lippert, G; Hutter, J; Parrinello, M. 
 MOLECULAR PHYSICS, 92 (3), 477-487 (1997). 
 A hybrid Gaussian and plane wave density functional scheme.
 https://doi.org/10.1080/002689797170220

 Perdew, JP; Burke, K; Ernzerhof, M. 
 PHYSICAL REVIEW LETTERS, 77 (18), 3865-3868 (1996). 
 Generalized gradient approximation made simple.
 https://doi.org/10.1103/PhysRevLett.77.3865

 Goedecker, S; Teter, M; Hutter, J. 
 PHYSICAL REVIEW B, 54 (3), 1703-1710 (1996). 
 Separable dual-space Gaussian pseudopotentials.
 https://doi.org/10.1103/PhysRevB.54.1703

 ESSMANN, U; PERERA, L; BERKOWITZ, ML; DARDEN, T; LEE, H; PEDERSEN, LG. 
 JOURNAL OF CHEMICAL PHYSICS, 103 (19), 8577-8593 (1995). 
 A SMOOTH PARTICLE MESH EWALD METHOD.
 https://doi.org/10.1063/1.470117

 BLOCHL, PE. 
 JOURNAL OF CHEMICAL PHYSICS, 103 (17), 7422-7428 (1995). 
 ELECTROSTATIC DECOUPLING OF PERIODIC IMAGES OF PLANE-WAVE-EXPANDED
 DENSITIES AND DERIVED ATOMIC POINT CHARGES.
 https://doi.org/10.1063/1.470314


 -------------------------------------------------------------------------------
 -                                                                             -
 -                                T I M I N G                                  -
 -                                                                             -
 -------------------------------------------------------------------------------
 SUBROUTINE                       CALLS  ASD         SELF TIME        TOTAL TIME
                                MAXIMUM       AVERAGE  MAXIMUM  AVERAGE  MAXIMUM
 CP2K                                 1  1.0    0.284    0.302  277.573  277.573
 qs_mol_dyn_low                       1  2.0    0.015    0.017  231.250  232.902
 velocity_verlet                      6  3.0    0.060    0.062  189.716  189.728
 qs_forces                            7  3.9    0.001    0.001   96.084   96.086
 rebuild_ks_matrix                   63  8.5    0.000    0.001   83.162   83.173
 qs_ks_build_kohn_sham_matrix        63  9.5    0.010    0.011   83.161   83.172
 qmmm_forces                          7  3.9    0.060    0.063   70.084   70.087
 qmmm_forces_with_gaussian            7  4.9    2.384    2.412   69.044   69.713
 hfx_ks_matrix                       63 10.5    0.003    0.003   66.350   66.360
 qmmm_el_coupling                     7  3.9    0.000    0.000   55.836   56.135
 qmmm_elec_with_gaussian              7  4.9    2.307    2.558   55.833   56.130
 qs_energies                          7  4.9    0.001    0.001   56.047   56.054
 scf_env_do_scf                       7  5.9    0.000    0.001   52.591   52.592
 qmmm_env_create                      1  2.0    7.917    8.325   44.339   44.342
 qs_ks_update_qs_env                 63  7.8    0.001    0.001   43.208   43.218
 pw_restrict_s3                      21  5.9    9.263    9.463   40.300   40.676
 qs_ks_update_qs_env_forces           7  4.9    0.000    0.000   39.959   39.960
 pw_integral_ab                    2967  7.5   33.949   35.708   34.395   36.255
 derivatives_four_center              7  8.9    0.016    0.285   36.013   36.015
 derivatives_four_center_main         7  9.9    0.046    0.126   35.540   35.542
 derivatives_four_center_bin        719 10.9   33.507   35.479   33.507   35.479
 scf_env_do_scf_inner_loop           56  6.8    0.001    0.003   33.137   33.151
 fist_init                            1  3.0    0.000    0.000   31.904   31.904
 integrate_four_center               63 11.5    3.082    3.352   30.329   30.339
 qmmm_elec_with_gaussian:spline       7  5.9    0.000    0.000   29.766   30.068
 pw_prolongate_s3                    21  6.9    6.860    7.010   29.766   30.068
 mp_sum_dm3                          38  5.7   23.569   24.362   23.569   24.362
 integrate_four_center_main          63 12.5    0.054    0.096   23.211   23.531
 integrate_four_center_bin         4348 13.5   23.158   23.472   23.158   23.472
 init_scf_loop                        7  6.9    0.000    0.001   19.434   19.435
 force_field_control                  1  4.0    0.000    0.000   17.622   17.859
 qmmm_force_with_gaussian_low         7  5.9    0.000    0.000   15.443   15.850
 rdparm_amber_8                       2  6.5   12.727   13.059   15.583   15.797
 pw_transfer                       1337 12.0    0.108    0.132   14.762   15.629
 fft_wrap_pw1pw2                   1113 13.1    0.012    0.015   14.569   15.453
 topology_control                     1  4.0    0.000    0.000   14.126   14.516
 fft3d_ps                          1113 15.1    2.283    3.274   13.148   13.972
 qmmm_forces_gaussian_low_R           7  6.9    0.000    0.000   12.884   13.167
 qmmm_forces_with_gaussian_LG         7  7.9   12.884   13.167   12.884   13.167
 fft_wrap_pw1pw2_200                707 14.4    0.605    0.738   11.440   12.172
 qmmm_elec_with_gaussian_low          7  5.9    0.000    0.000   11.138   11.702
 mp_alltoall_z22v                  1113 17.1   10.294   11.353   10.294   11.353
 force_field_pack                     1  5.0    0.009    0.014   10.204   10.331
 qmmm_elec_gaussian_low_R             7  6.9    0.000    0.000    9.263    9.827
 qmmm_elec_with_gaussian_LG           7  7.9    9.263    9.827    9.263    9.827
 pw_zero                           2442  7.3    8.841    9.522    8.841    9.522
 yz_to_x                            518 15.7    0.176    0.235    8.055    8.722
 connectivity_control                 2  4.0    0.000    0.001    8.458    8.472
 pw_axpy                           1914  8.3    7.583    8.308    7.583    8.308
 read_connectivity_amber              1  6.0    0.000    0.000    8.286    8.294
 qs_vxc_create                       63 10.5    0.002    0.003    8.246    8.249
 xc_vxc_pw_create                    63 11.5    0.127    0.231    8.244    8.248
 rs_pw_transfer                     546 11.8    0.010    0.013    7.273    8.105
 qs_rho_update_rho                   63  7.9    0.001    0.001    7.592    7.604
 calculate_rho_elec                  63  8.9    0.031    0.050    7.591    7.603
 read_force_field_amber               1  5.0    0.011    0.012    7.308    7.519
 force_field_pack_splines             2  6.0    0.014    0.018    6.722    6.790
 sum_up_and_integrate                63 10.5    0.033    0.058    6.582    6.596
 get_nonbond_storage                  2  7.0    0.224    0.249    6.500    6.568
 integrate_v_rspace                  63 11.5    0.002    0.003    6.549    6.568
 set_potparm_index                  602  8.0    0.326    0.331    6.275    6.339
 density_rs2pw                       63  9.9    0.003    0.003    5.363    6.148
 init_genpot                        604  9.0    5.967    6.028    5.967    6.028
 -------------------------------------------------------------------------------

 The number of warnings for this run is : 0
 
 -------------------------------------------------------------------------------
  **** **** ******  **  PROGRAM ENDED AT                 2021-09-01 13:44:57.364
 ***** ** ***  *** **   PROGRAM RAN ON                                 nid001623
 **    ****   ******    PROGRAM RAN BY                                     hjbio
 ***** **    ** ** **   PROGRAM PROCESS ID                                 95278
  **** **  *******  **  PROGRAM STOPPED IN /lus/cls01095/work/d118/d118/hjbio/qm
                                           mm-benchmarking/archer2/CPU/cp2kMD/CB
                                           D_PHY-PBE0/6STEPS/4NODES/128CPN/2THRE
                                           ADS
