 DBCSR| CPU Multiplication driver                                           BLAS
 DBCSR| Multrec recursion limit                                              512
 DBCSR| Multiplication stack size                                           1000
 DBCSR| Maximum elements for images                                    UNLIMITED
 DBCSR| Multiplicative factor virtual images                                   1
 DBCSR| Use multiplication densification                                       T
 DBCSR| Multiplication size stacks                                             3
 DBCSR| Use memory pool for CPU allocation                                     F
 DBCSR| Number of 3D layers                                               SINGLE
 DBCSR| Use MPI memory allocation                                              F
 DBCSR| Use RMA algorithm                                                      F
 DBCSR| Use Communication thread                                               T
 DBCSR| Communication thread load                                             60
 DBCSR| MPI: My node id                                                        0
 DBCSR| MPI: Number of nodes                                                  16
 DBCSR| OMP: Current number of threads                                         8
 DBCSR| OMP: Max number of threads                                             8
 DBCSR| Split modifier for TAS multiplication algorithm                  1.0E+00


  **** **** ******  **  PROGRAM STARTED AT               2021-12-10 13:40:08.843
 ***** ** ***  *** **   PROGRAM STARTED ON                             nid006375
 **    ****   ******    PROGRAM STARTED BY                                 hjbio
 ***** **    ** ** **   PROGRAM PROCESS ID                                177601
  **** **  *******  **  PROGRAM STARTED IN /mnt/lustre/a2fs-work1/work/d118/d118
                                           /hjbio/CP2K/qmmm-benchmarking/CPU/cp2
                                           kMD/ClC-253-B3LYP/6STEPS/1NODES/128CP
                                           N/8THREADS

 CP2K| version string:                                          CP2K version 8.2
 CP2K| source code revision number:                                  git:310b7ab
 CP2K| cp2kflags: omp libint fftw3 libxc elpa parallel mpi3 scalapack plumed2   
 CP2K| is freely available from                            https://www.cp2k.org/
 CP2K| Program compiled at                          Thu Dec  2 10:30:45 GMT 2021
 CP2K| Program compiled on                                                  ln02
 CP2K| Program compiled for                                              ARCHER2
 CP2K| Data directory path         /work/y07/shared/apps/core/cp2k/cp2k-8.2/data
 CP2K| Input file name                                          ClC-253-cp2k.inp

 GLOBAL| Force Environment number                                              1
 GLOBAL| Basis set file name                                     EMSL_BASIS_SETS
 GLOBAL| Potential file name                                           POTENTIAL
 GLOBAL| MM Potential file name                                     MM_POTENTIAL
 GLOBAL| Coordinate file name                                            ClC.pdb
 GLOBAL| Method name                                                        CP2K
 GLOBAL| Project name                                              ClC-253-B3LYP
 GLOBAL| Run type                                                             MD
 GLOBAL| FFT library                                                       FFTW3
 GLOBAL| Diagonalization library                                            ELPA
 GLOBAL| Minimum number of eigenvectors for ELPA usage                        16
 GLOBAL| Orthonormality check for eigenvectors                          DISABLED
 GLOBAL| Matrix multiplication library                                    SCALAP
 GLOBAL| All-to-all communication in single precision                          F
 GLOBAL| FFTs using library dependent lengths                                  F
 GLOBAL| Grid backend                                                       AUTO
 GLOBAL| Global print level                                                  LOW
 GLOBAL| MPI I/O enabled                                                       T
 GLOBAL| Total number of message passing processes                            16
 GLOBAL| Number of threads for this process                                    8
 GLOBAL| This output is from process                                           0
 GLOBAL| CPU model name                          AMD EPYC 7742 64-Core Processor
 GLOBAL| CPUID                                                              1002

 MEMORY| system memory details [Kb]
 MEMORY|                        rank 0           min           max       average
 MEMORY| MemTotal            263528088     263528088     263528088     263528088
 MEMORY| MemFree             253045424     253045424     253045424     253045424
 MEMORY| Buffers                 27964         27964         27964         27964
 MEMORY| Cached                 798928        798928        798928        798928
 MEMORY| Slab                  1471988       1471988       1471988       1471988
 MEMORY| SReclaimable            76696         76696         76696         76696
 MEMORY| MemLikelyFree       253949012     253949012     253949012     253949012



                      ************* ******** ***********   
                     ************* **********************  
                     ****     **** ****      ***********   
                     ******** ****  *******     ****       
                     *******  ****   *******   ****        
                     ****     ****       ****  ****        
                     ****     **** **********  ****        
                      ****     **** ********    ****       
                     FRONTIERS IN SIMULATION TECHNOLOGY    
                                                           
                        C.J. Mundy, S. Balasubramanian,    
                     Ken Bagchi, J. Hutter, Ari Seitsonen  
                      IFW Kuo, T. Laino, J. VandeVondele   
                                 Version 1.0               

                                                           


 EWALD| Summation is done by:                                               SPME
 EWALD| Alpha parameter [       ANGSTROM^-1]                              0.4000
 EWALD| Real Space Cutoff [          ANGSTROM]                            8.4348
 EWALD| G-space max. Miller index                         80        80        80
 EWALD| Spline interpolation order                                             6

 FORCEFIELD| WARNING: A non Critical ForceField parameter is missing! CP2K GOES!
 FORCEFIELD| Non critical parameters are:Urey-Bradley,Torsions,Impropers, Opbends and 1-4
 FORCEFIELD| All missing parameters will not contribute to the potential energy!
 FORCEFIELD| Activate the print key FF_INFO to have a list of missing parameters

 CHARGE_INFO| Total Charge of the Classical System:                     2.369895

 SPLINE_INFO| Generating 85491 splines for NONBONDED14 interactions 
              Due to 413 different atomic kinds
  ...8549  ...17098  ...25647  ...34196  ...42745  ...51294  ...59843  ...68392  ...76941  ...85490
 SPLINE_INFO| Number of unique splines computed:            254
 SPLINE_INFO| Done

 SPLINE_INFO| Generating 85491 splines for NONBONDED interactions 
              Due to 413 different atomic kinds
  ...8549  ...17098  ...25647  ...34196  ...42745  ...51294  ...59843  ...68392  ...76941  ...85490
 SPLINE_INFO| Number of unique splines computed:            254
 SPLINE_INFO| Done

 *******************************************************************************
 *******************************************************************************
 **                                                                           **
 **     #####                         ##              ##                      **
 **    ##   ##            ##          ##              ##                      **
 **   ##     ##                       ##            ######                    **
 **   ##     ##  ##   ##  ##   #####  ##  ##   ####   ##    #####    #####    **
 **   ##     ##  ##   ##  ##  ##      ## ##   ##      ##   ##   ##  ##   ##   **
 **   ##  ## ##  ##   ##  ##  ##      ####     ###    ##   ######   ######    **
 **    ##  ###   ##   ##  ##  ##      ## ##      ##   ##   ##       ##        **
 **     #######   #####   ##   #####  ##  ##  ####    ##    #####   ##        **
 **           ##                                                    ##        **
 **                                                                           **
 **                                                ... make the atoms dance   **
 **                                                                           **
 **            Copyright (C) by CP2K developers group (2000-2021)             **
 **                      J. Chem. Phys. 152, 194103 (2020)                    **
 **                                                                           **
 *******************************************************************************


 TOTAL NUMBERS AND MAXIMUM NUMBERS

  Total number of            - Atomic kinds:                                   6
                             - Atoms:                                        253
                             - Shell sets:                                   876
                             - Shells:                                      1109
                             - Primitive Cartesian functions:               1967
                             - Cartesian basis functions:                   2429
                             - Spherical basis functions:                   2313

  Maximum angular momentum of- Orbital basis functions:                        2
                             - Local part of the GTH pseudopotential:          2
                             - Non-local part of the GTH pseudopotential:      2


 SCF PARAMETERS         Density guess:                                   RESTART
                        --------------------------------------------------------
                        max_scf:                                              50
                        max_scf_history:                                       0
                        max_diis:                                              4
                        --------------------------------------------------------
                        eps_scf:                                        1.00E-06
                        eps_scf_history:                                0.00E+00
                        eps_diis:                                       1.00E-01
                        eps_eigval:                                     1.00E-05
                        --------------------------------------------------------
                        level_shift [a.u.]:                                 0.00
                        --------------------------------------------------------
                        Outer loop SCF in use 
                        No variables optimised in outer loop
                        eps_scf                                         1.00E-06
                        max_scf                                               20
                        No outer loop optimization
                        step_size                                       5.00E-01

 *******************************************************************************
 *******************************************************************************
 **                                                                           **
 **             #######  ##     ## ##     ## ##     ##                        **
 **            ##     ## ###   ### ###   ### ###   ###                        **
 **            ##     ## #### #### #### #### #### ####                        **
 **            ##     ## ## ### ## ## ### ## ## ### ##                        **
 **            ##  ## ## ##     ## ##     ## ##     ##                        **
 **            ##    ##  ##     ## ##     ## ##     ##  T.Laino and F.Mohamed **
 **             ##### ## ##     ## ##     ## ##     ##  2005 - 2015           **
 **                                                                           **
 **                                                     Calculation Started.. **
 *******************************************************************************
 *******************************************************************************

 MD_PAR| Molecular dynamics protocol (MD input parameters)
 MD_PAR| Ensemble type                                                       NVE
 MD_PAR| Number of time steps                                                  6
 MD_PAR| Time step [fs]                                                 1.000000
 MD_PAR| Temperature [K]                                              300.000000
 MD_PAR| Temperature tolerance [K]                                      0.000000
 MD_PAR| Print MD information every                                    1 step(s)
 MD_PAR| File type   Print frequency [steps]                          File names
 MD_PAR| Coordinates          1                          ClC-253-B3LYP-pos-1.xyz
 MD_PAR| Velocities           1                          ClC-253-B3LYP-vel-1.xyz
 MD_PAR| Energies             1                             ClC-253-B3LYP-1.ener
 MD_PAR| Dump                20                          ClC-253-B3LYP-1.restart

 ROT| Rotational analysis information
 ROT| Principal axes and moments of inertia [a.u.]
 ROT|                           1                   2                   3
 ROT| Eigenvalues      1.18228221563E+13   1.18772146411E+13   1.55923586977E+13
 ROT|      x             -0.973134378681     -0.230223222672      0.002597839626
 ROT|      y             -0.230225448758      0.973137141292     -0.000589052320
 ROT|      z              0.002392440703      0.001171315857      0.999996452117
 ROT| Number of rotovibrational vectors                                        6

 DOF| Calculation of degrees of freedom
 DOF| Number of atoms                                                     150925
 DOF| Number of intramolecular constraints                                     0
 DOF| Number of intermolecular constraints                                     0
 DOF| Invariants (translations + rotations)                                    3
 DOF| Degrees of freedom                                                  452772

 DOF| Restraints information
 DOF| Number of intramolecular restraints                                      0
 DOF| Number of intermolecular restraints                                      0

 MD_VEL| Velocities initialization
 MD_VEL| Initial temperature [K]                                      300.000000
 MD_VEL| COM velocity            -0.0000000000     0.0000000000     0.0000000000

  Translating the system in order to center the QM fragment in the QM box.

 Number of electrons:                                                        654
 Number of occupied orbitals:                                                327
 Number of molecular orbitals:                                               327

 Number of orbital functions:                                               2313
 Number of independent orbital functions:                                   2313

 Extrapolation method: initial_guess


 SCF WAVEFUNCTION OPTIMIZATION

  ----------------------------------- OT ---------------------------------------
  Minimizer      : DIIS                : direct inversion
                                         in the iterative subspace
                                         using   7 DIIS vectors
                                         safer DIIS on
  Preconditioner : FULL_ALL            : diagonalization, state selective
  Precond_solver : DEFAULT
  stepsize       :    0.15000000                  energy_gap     :    0.08000000
  eps_taylor     :   0.10000E-15                  max_taylor     :             4
  ----------------------------------- OT ---------------------------------------

  Step     Update method      Time    Convergence         Total energy    Change
  ------------------------------------------------------------------------------
  Decoupling Energy:                                               0.0652965565
  Recoupling Energy:                                              -0.0067743629

 *** WARNING in hfx_energy_potential.F:592 :: The Kohn Sham matrix is not  ***
 *** 100% occupied. This may result in incorrect Hartree-Fock results. Try ***
 *** to decrease EPS_PGF_ORB and EPS_FILTER_MATRIX in the QS section. For  ***
 *** more information see FAQ: https://www.cp2k.org/faq:hfx_eps_warning    ***

     1 OT DIIS     0.15E+00   82.7     0.00000147     -1097.2146398364 -1.10E+03
  Decoupling Energy:                                               0.0652912916
  Recoupling Energy:                                              -0.0067742598
     2 OT DIIS     0.15E+00   41.5     0.00000228     -1097.2146398847 -4.83E-08
  Decoupling Energy:                                               0.0652926349
  Recoupling Energy:                                              -0.0067742782
     3 OT DIIS     0.15E+00   41.5     0.00000108     -1097.2146399880 -1.03E-07
  Decoupling Energy:                                               0.0652927570
  Recoupling Energy:                                              -0.0067742854
     4 OT DIIS     0.15E+00   41.6     0.00000091     -1097.2146400405 -5.25E-08

  *** SCF run converged in     4 steps ***


  Electronic density on regular grids:       -654.0001611163       -0.0001611163
  Core density on regular grids:              654.9999999993       -0.0000000007
  Total charge density on r-space grids:        0.9998388831
  Total charge density g-space grids:           0.9998388831

  Overlap energy of the core charge distribution:               0.00004213532864
  Self energy of the core charge distribution:              -2459.11679630764229
  Core Hamiltonian energy:                                    757.75939632524808
  Hartree energy:                                            1000.45244191767620
  Exchange-correlation energy:                               -243.02999618371024
  Hartree-Fock Exchange energy:                               -54.33827195783456
  QM/MM Electrostatic energy:                                 -98.94145596953236

  Total energy:                                             -1097.21464004046629

  outer SCF iter =    1 RMS gradient =   0.91E-06 energy =      -1097.2146400405
  outer SCF loop converged in   1 iterations or    4 steps

  Decoupling Energy:                                               0.0652923664
  Recoupling Energy:                                              -0.0067742723

 ENERGY| Total FORCE_EVAL ( QMMM ) energy [a.u.]:          -1468.298508616302115

 MD_INI| MD initialization
 MD_INI| Potential energy [hartree]                          -0.146829850862E+04
 MD_INI| Total kinetic energy [hartree]                       0.215076797492E+03
 MD_INI| QM kinetic energy [hartree]                          0.369606607592E+00
 MD_INI| Total temperature [K]                                        300.000000
 MD_INI| QM temperature [K]                                           307.542546
 MD_INI| Cell volume [bohr^3]                                 9.853827160554E+06
 MD_INI| Cell volume [ang^3]                                  1.460186515536E+06
 MD_INI| Cell lengths [bohr]      2.39870119E+02  2.39870119E+02  1.71258698E+02
 MD_INI| Cell lengths [ang]       1.26933800E+02  1.26933800E+02  9.06262000E+01
 MD_INI| Cell angles [deg]        9.00000000E+01  9.00000000E+01  9.00000000E+01

  Translating the system in order to center the QM fragment in the QM box.

 Number of electrons:                                                        654
 Number of occupied orbitals:                                                327
 Number of molecular orbitals:                                               327

 Number of orbital functions:                                               2313
 Number of independent orbital functions:                                   2313

 Extrapolation method: ASPC


 SCF WAVEFUNCTION OPTIMIZATION

  ----------------------------------- OT ---------------------------------------
  Minimizer      : DIIS                : direct inversion
                                         in the iterative subspace
                                         using   7 DIIS vectors
                                         safer DIIS on
  Preconditioner : FULL_ALL            : diagonalization, state selective
  Precond_solver : DEFAULT
  stepsize       :    0.15000000                  energy_gap     :    0.08000000
  eps_taylor     :   0.10000E-15                  max_taylor     :             4
  ----------------------------------- OT ---------------------------------------

  Step     Update method      Time    Convergence         Total energy    Change
  ------------------------------------------------------------------------------
  Decoupling Energy:                                               0.0654977898
  Recoupling Energy:                                              -0.0067751650

 *** WARNING in hfx_energy_potential.F:592 :: The Kohn Sham matrix is not  ***
 *** 100% occupied. This may result in incorrect Hartree-Fock results. Try ***
 *** to decrease EPS_PGF_ORB and EPS_FILTER_MATRIX in the QS section. For  ***
 *** more information see FAQ: https://www.cp2k.org/faq:hfx_eps_warning    ***

     1 OT DIIS     0.15E+00   75.2     0.00039341     -1096.7916980265 -1.10E+03
  Decoupling Energy:                                               0.0653301296
  Recoupling Energy:                                              -0.0067715231
     2 OT DIIS     0.15E+00   41.3     0.00021598     -1096.8028091283 -1.11E-02
  Decoupling Energy:                                               0.0655799298
  Recoupling Energy:                                              -0.0067741026
     3 OT DIIS     0.15E+00   41.2     0.00035740     -1096.8033039357 -4.95E-04
  Decoupling Energy:                                               0.0653764852
  Recoupling Energy:                                              -0.0067727351
     4 OT DIIS     0.15E+00   41.3     0.00011433     -1096.8053648813 -2.06E-03
  Decoupling Energy:                                               0.0653370463
  Recoupling Energy:                                              -0.0067710846
     5 OT DIIS     0.15E+00   41.3     0.00003630     -1096.8056470366 -2.82E-04
  Decoupling Energy:                                               0.0653622179
  Recoupling Energy:                                              -0.0067719019
     6 OT DIIS     0.15E+00   41.4     0.00002251     -1096.8056710487 -2.40E-05
  Decoupling Energy:                                               0.0653570149
  Recoupling Energy:                                              -0.0067717605
     7 OT DIIS     0.15E+00   41.2     0.00000833     -1096.8056819662 -1.09E-05
  Decoupling Energy:                                               0.0653435166
  Recoupling Energy:                                              -0.0067715343
     8 OT DIIS     0.15E+00   41.3     0.00000521     -1096.8056860115 -4.05E-06
  Decoupling Energy:                                               0.0653463767
  Recoupling Energy:                                              -0.0067717022
     9 OT DIIS     0.15E+00   41.3     0.00000484     -1096.8056876755 -1.66E-06
  Decoupling Energy:                                               0.0653376665
  Recoupling Energy:                                              -0.0067715744
    10 OT DIIS     0.15E+00   41.3     0.00000367     -1096.8056893840 -1.71E-06
  Decoupling Energy:                                               0.0653304000
  Recoupling Energy:                                              -0.0067715129
    11 OT DIIS     0.15E+00   41.2     0.00000341     -1096.8056914599 -2.08E-06
  Decoupling Energy:                                               0.0653234137
  Recoupling Energy:                                              -0.0067715029
    12 OT DIIS     0.15E+00   41.3     0.00000334     -1096.8056931409 -1.68E-06
  Decoupling Energy:                                               0.0653159638
  Recoupling Energy:                                              -0.0067714460
    13 OT DIIS     0.15E+00   41.3     0.00000317     -1096.8056949515 -1.81E-06
  Decoupling Energy:                                               0.0653053889
  Recoupling Energy:                                              -0.0067713832
    14 OT DIIS     0.15E+00   41.4     0.00000277     -1096.8056969620 -2.01E-06
  Decoupling Energy:                                               0.0652930184
  Recoupling Energy:                                              -0.0067713040
    15 OT DIIS     0.15E+00   41.3     0.00000250     -1096.8056989651 -2.00E-06
  Decoupling Energy:                                               0.0652804329
  Recoupling Energy:                                              -0.0067712343
    16 OT DIIS     0.15E+00   41.3     0.00000224     -1096.8057007370 -1.77E-06
  Decoupling Energy:                                               0.0652659196
  Recoupling Energy:                                              -0.0067711664
    17 OT DIIS     0.15E+00   41.3     0.00000188     -1096.8057025619 -1.82E-06
  Decoupling Energy:                                               0.0652556334
  Recoupling Energy:                                              -0.0067710616
    18 OT DIIS     0.15E+00   41.4     0.00000183     -1096.8057033999 -8.38E-07
  Decoupling Energy:                                               0.0652439491
  Recoupling Energy:                                              -0.0067710114
    19 OT DIIS     0.15E+00   41.3     0.00000155     -1096.8057044437 -1.04E-06
  Decoupling Energy:                                               0.0652342725
  Recoupling Energy:                                              -0.0067709542
    20 OT DIIS     0.15E+00   41.3     0.00000152     -1096.8057050736 -6.30E-07
  Decoupling Energy:                                               0.0652274787
  Recoupling Energy:                                              -0.0067708943
    21 OT DIIS     0.15E+00   41.2     0.00000140     -1096.8057055142 -4.41E-07
  Decoupling Energy:                                               0.0652205588
  Recoupling Energy:                                              -0.0067708486
    22 OT DIIS     0.15E+00   41.3     0.00000133     -1096.8057058828 -3.69E-07
  Decoupling Energy:                                               0.0652145566
  Recoupling Energy:                                              -0.0067708050
    23 OT DIIS     0.15E+00   41.2     0.00000119     -1096.8057061970 -3.14E-07
  Decoupling Energy:                                               0.0652084931
  Recoupling Energy:                                              -0.0067707610
    24 OT DIIS     0.15E+00   41.3     0.00000116     -1096.8057065142 -3.17E-07
  Decoupling Energy:                                               0.0652023933
  Recoupling Energy:                                              -0.0067707108
    25 OT DIIS     0.15E+00   41.2     0.00000108     -1096.8057068170 -3.03E-07
  Decoupling Energy:                                               0.0651961402
  Recoupling Energy:                                              -0.0067706552
    26 OT DIIS     0.15E+00   41.3     0.00000105     -1096.8057071345 -3.17E-07
  Decoupling Energy:                                               0.0651922341
  Recoupling Energy:                                              -0.0067706331
    27 OT DIIS     0.15E+00   41.2     0.00000101     -1096.8057073503 -2.16E-07
  Decoupling Energy:                                               0.0651865932
  Recoupling Energy:                                              -0.0067705841
    28 OT DIIS     0.15E+00   41.3     0.00000100     -1096.8057076299 -2.80E-07

  *** SCF run converged in    28 steps ***


  Electronic density on regular grids:       -654.0002714725       -0.0002714725
  Core density on regular grids:              654.9999999988       -0.0000000012
  Total charge density on r-space grids:        0.9997285263
  Total charge density g-space grids:           0.9997285263

  Overlap energy of the core charge distribution:               0.00004340930318
  Self energy of the core charge distribution:              -2459.11679630764229
  Core Hamiltonian energy:                                    757.53689445536611
  Hartree energy:                                            1000.61837559559422
  Exchange-correlation energy:                               -242.98563651928990
  Hartree-Fock Exchange energy:                               -54.32729775925927
  QM/MM Electrostatic energy:                                 -98.53129050399953

  Total energy:                                             -1096.80570762992761

  outer SCF iter =    1 RMS gradient =   0.10E-05 energy =      -1096.8057076299
  outer SCF loop converged in   1 iterations or   28 steps

  Decoupling Energy:                                               0.0651833402
  Recoupling Energy:                                              -0.0067705547

 ENERGY| Total FORCE_EVAL ( QMMM ) energy [a.u.]:          -1446.419720426935783

 MD| ***************************************************************************
 MD| Step number                                                               1
 MD| Time [fs]                                                          1.000000
 MD| Conserved quantity [hartree]                            -0.124771269465E+04
 MD| ---------------------------------------------------------------------------
 MD|                                          Instantaneous             Averages
 MD| CPU time per MD step [s]                   1579.876314          1579.876314
 MD| Energy drift per atom [K]           0.115263060206E+02   0.000000000000E+00
 MD| Potential energy [hartree]         -0.144641972043E+04  -0.144641972043E+04
 MD| Total kinetic energy [hartree]      0.198707025772E+03   0.198707025772E+03
 MD| QM kinetic energy [hartree]         0.372936161594E+00   0.372936161594E+00
 MD| Total temperature [K]                       277.166614           277.166614
 MD| QM temperature [K]                          310.313004           310.313004
 MD| ***************************************************************************

  Translating the system in order to center the QM fragment in the QM box.

 Number of electrons:                                                        654
 Number of occupied orbitals:                                                327
 Number of molecular orbitals:                                               327

 Number of orbital functions:                                               2313
 Number of independent orbital functions:                                   2313

 Extrapolation method: ASPC


 SCF WAVEFUNCTION OPTIMIZATION

  ----------------------------------- OT ---------------------------------------
  Minimizer      : DIIS                : direct inversion
                                         in the iterative subspace
                                         using   7 DIIS vectors
                                         safer DIIS on
  Preconditioner : FULL_ALL            : diagonalization, state selective
  Precond_solver : DEFAULT
  stepsize       :    0.15000000                  energy_gap     :    0.08000000
  eps_taylor     :   0.10000E-15                  max_taylor     :             4
  ----------------------------------- OT ---------------------------------------

  Step     Update method      Time    Convergence         Total energy    Change
  ------------------------------------------------------------------------------
  Decoupling Energy:                                               0.0651461868
  Recoupling Energy:                                              -0.0067658584

 *** WARNING in hfx_energy_potential.F:592 :: The Kohn Sham matrix is not  ***
 *** 100% occupied. This may result in incorrect Hartree-Fock results. Try ***
 *** to decrease EPS_PGF_ORB and EPS_FILTER_MATRIX in the QS section. For  ***
 *** more information see FAQ: https://www.cp2k.org/faq:hfx_eps_warning    ***

     1 OT DIIS     0.15E+00   75.5     0.00018054     -1095.5599387174 -1.10E+03
  Decoupling Energy:                                               0.0650849500
  Recoupling Energy:                                              -0.0067651268
     2 OT DIIS     0.15E+00   41.5     0.00010002     -1095.5622127572 -2.27E-03
  Decoupling Energy:                                               0.0651131959
  Recoupling Energy:                                              -0.0067646927
     3 OT DIIS     0.15E+00   41.6     0.00015506     -1095.5623204800 -1.08E-04
  Decoupling Energy:                                               0.0650620187
  Recoupling Energy:                                              -0.0067644771
     4 OT DIIS     0.15E+00   41.6     0.00005738     -1095.5627084447 -3.88E-04
  Decoupling Energy:                                               0.0650739795
  Recoupling Energy:                                              -0.0067643068
     5 OT DIIS     0.15E+00   41.6     0.00001876     -1095.5627755273 -6.71E-05
  Decoupling Energy:                                               0.0650655391
  Recoupling Energy:                                              -0.0067643466
     6 OT DIIS     0.15E+00   41.5     0.00000951     -1095.5627836258 -8.10E-06
  Decoupling Energy:                                               0.0650626849
  Recoupling Energy:                                              -0.0067641268
     7 OT DIIS     0.15E+00   41.6     0.00000595     -1095.5627866751 -3.05E-06
  Decoupling Energy:                                               0.0650544192
  Recoupling Energy:                                              -0.0067638732
     8 OT DIIS     0.15E+00   41.6     0.00000440     -1095.5627889974 -2.32E-06
  Decoupling Energy:                                               0.0650562166
  Recoupling Energy:                                              -0.0067639149
     9 OT DIIS     0.15E+00   41.6     0.00000399     -1095.5627903307 -1.33E-06
  Decoupling Energy:                                               0.0650500127
  Recoupling Energy:                                              -0.0067636825
    10 OT DIIS     0.15E+00   41.6     0.00000309     -1095.5627922892 -1.96E-06
  Decoupling Energy:                                               0.0650433664
  Recoupling Energy:                                              -0.0067634728
    11 OT DIIS     0.15E+00   41.6     0.00000284     -1095.5627938731 -1.58E-06
  Decoupling Energy:                                               0.0650402536
  Recoupling Energy:                                              -0.0067633594
    12 OT DIIS     0.15E+00   41.5     0.00000274     -1095.5627954812 -1.61E-06
  Decoupling Energy:                                               0.0650382174
  Recoupling Energy:                                              -0.0067632581
    13 OT DIIS     0.15E+00   41.6     0.00000260     -1095.5627964419 -9.61E-07
  Decoupling Energy:                                               0.0650327125
  Recoupling Energy:                                              -0.0067631179
    14 OT DIIS     0.15E+00   41.6     0.00000203     -1095.5627975478 -1.11E-06
  Decoupling Energy:                                               0.0650288202
  Recoupling Energy:                                              -0.0067629937
    15 OT DIIS     0.15E+00   41.6     0.00000190     -1095.5627984423 -8.95E-07
  Decoupling Energy:                                               0.0650253917
  Recoupling Energy:                                              -0.0067629165
    16 OT DIIS     0.15E+00   41.6     0.00000161     -1095.5627990461 -6.04E-07
  Decoupling Energy:                                               0.0650230581
  Recoupling Energy:                                              -0.0067628804
    17 OT DIIS     0.15E+00   41.6     0.00000150     -1095.5627997210 -6.75E-07
  Decoupling Energy:                                               0.0650201292
  Recoupling Energy:                                              -0.0067628110
    18 OT DIIS     0.15E+00   41.6     0.00000137     -1095.5628000446 -3.24E-07
  Decoupling Energy:                                               0.0650167115
  Recoupling Energy:                                              -0.0067627608
    19 OT DIIS     0.15E+00   41.6     0.00000129     -1095.5628004350 -3.90E-07
  Decoupling Energy:                                               0.0650146563
  Recoupling Energy:                                              -0.0067627487
    20 OT DIIS     0.15E+00   41.5     0.00000126     -1095.5628007700 -3.35E-07
  Decoupling Energy:                                               0.0650130434
  Recoupling Energy:                                              -0.0067627314
    21 OT DIIS     0.15E+00   41.6     0.00000127     -1095.5628009897 -2.20E-07
  Decoupling Energy:                                               0.0650100058
  Recoupling Energy:                                              -0.0067627019
    22 OT DIIS     0.15E+00   41.5     0.00000120     -1095.5628012808 -2.91E-07
  Decoupling Energy:                                               0.0650066177
  Recoupling Energy:                                              -0.0067626725
    23 OT DIIS     0.15E+00   41.6     0.00000118     -1095.5628016490 -3.68E-07
  Decoupling Energy:                                               0.0650040760
  Recoupling Energy:                                              -0.0067626558
    24 OT DIIS     0.15E+00   41.5     0.00000115     -1095.5628019008 -2.52E-07
  Decoupling Energy:                                               0.0649990105
  Recoupling Energy:                                              -0.0067626300
    25 OT DIIS     0.15E+00   41.6     0.00000111     -1095.5628024557 -5.55E-07
  Decoupling Energy:                                               0.0649960051
  Recoupling Energy:                                              -0.0067625960
    26 OT DIIS     0.15E+00   41.5     0.00000110     -1095.5628027073 -2.52E-07
  Decoupling Energy:                                               0.0649910019
  Recoupling Energy:                                              -0.0067625636
    27 OT DIIS     0.15E+00   41.6     0.00000106     -1095.5628031522 -4.45E-07
  Decoupling Energy:                                               0.0649865722
  Recoupling Energy:                                              -0.0067625439
    28 OT DIIS     0.15E+00   41.5     0.00000105     -1095.5628035814 -4.29E-07
  Decoupling Energy:                                               0.0649832688
  Recoupling Energy:                                              -0.0067625196
    29 OT DIIS     0.15E+00   41.6     0.00000106     -1095.5628039086 -3.27E-07
  Decoupling Energy:                                               0.0649800653
  Recoupling Energy:                                              -0.0067624980
    30 OT DIIS     0.15E+00   41.5     0.00000103     -1095.5628041855 -2.77E-07
  Decoupling Energy:                                               0.0649762739
  Recoupling Energy:                                              -0.0067624755
    31 OT DIIS     0.15E+00   41.6     0.00000101     -1095.5628045663 -3.81E-07
  Decoupling Energy:                                               0.0649737961
  Recoupling Energy:                                              -0.0067624635
    32 OT DIIS     0.15E+00   41.6     0.00000100     -1095.5628048239 -2.58E-07

  *** SCF run converged in    32 steps ***


  Electronic density on regular grids:       -654.0005085211       -0.0005085211
  Core density on regular grids:              654.9999999993       -0.0000000007
  Total charge density on r-space grids:        0.9994914782
  Total charge density g-space grids:           0.9994914782

  Overlap energy of the core charge distribution:               0.00004749890152
  Self energy of the core charge distribution:              -2459.11679630764229
  Core Hamiltonian energy:                                    757.26866668079811
  Hartree energy:                                            1000.83072053094736
  Exchange-correlation energy:                               -242.93630008417239
  Hartree-Fock Exchange energy:                               -54.31589076907030
  QM/MM Electrostatic energy:                                 -97.29325237363486

  Total energy:                                             -1095.56280482387274

  outer SCF iter =    1 RMS gradient =   0.10E-05 energy =      -1095.5628048239
  outer SCF loop converged in   1 iterations or   32 steps

  Decoupling Energy:                                               0.0649695978
  Recoupling Energy:                                              -0.0067624439

 ENERGY| Total FORCE_EVAL ( QMMM ) energy [a.u.]:          -1444.400721324717779

 MD| ***************************************************************************
 MD| Step number                                                               2
 MD| Time [fs]                                                          2.000000
 MD| Conserved quantity [hartree]                            -0.124842738931E+04
 MD| ---------------------------------------------------------------------------
 MD|                                          Instantaneous             Averages
 MD| CPU time per MD step [s]                   1453.294412          1516.585363
 MD| Energy drift per atom [K]           0.100309775277E+02   0.501548876387E+01
 MD| Potential energy [hartree]         -0.144440072132E+04  -0.144541022088E+04
 MD| Total kinetic energy [hartree]      0.195973332016E+03   0.197340178894E+03
 MD| QM kinetic energy [hartree]         0.378391620105E+00   0.375663890849E+00
 MD| Total temperature [K]                       273.353520           275.260067
 MD| QM temperature [K]                          314.852386           312.582695
 MD| ***************************************************************************

  Translating the system in order to center the QM fragment in the QM box.

 Number of electrons:                                                        654
 Number of occupied orbitals:                                                327
 Number of molecular orbitals:                                               327

 Number of orbital functions:                                               2313
 Number of independent orbital functions:                                   2313

 Extrapolation method: ASPC


 SCF WAVEFUNCTION OPTIMIZATION

  ----------------------------------- OT ---------------------------------------
  Minimizer      : DIIS                : direct inversion
                                         in the iterative subspace
                                         using   7 DIIS vectors
                                         safer DIIS on
  Preconditioner : FULL_ALL            : diagonalization, state selective
  Precond_solver : DEFAULT
  stepsize       :    0.15000000                  energy_gap     :    0.08000000
  eps_taylor     :   0.10000E-15                  max_taylor     :             4
  ----------------------------------- OT ---------------------------------------

  Step     Update method      Time    Convergence         Total energy    Change
  ------------------------------------------------------------------------------
  Decoupling Energy:                                               0.0646886879
  Recoupling Energy:                                              -0.0067559547

 *** WARNING in hfx_energy_potential.F:592 :: The Kohn Sham matrix is not  ***
 *** 100% occupied. This may result in incorrect Hartree-Fock results. Try ***
 *** to decrease EPS_PGF_ORB and EPS_FILTER_MATRIX in the QS section. For  ***
 *** more information see FAQ: https://www.cp2k.org/faq:hfx_eps_warning    ***

     1 OT DIIS     0.15E+00   76.1     0.00015706     -1093.6675450316 -1.09E+03
  Decoupling Energy:                                               0.0646863003
  Recoupling Energy:                                              -0.0067525447
     2 OT DIIS     0.15E+00   42.8     0.00009521     -1093.6691677824 -1.62E-03
  Decoupling Energy:                                               0.0647433356
  Recoupling Energy:                                              -0.0067568992
     3 OT DIIS     0.15E+00   42.7     0.00010975     -1093.6693094936 -1.42E-04
  Decoupling Energy:                                               0.0647610730
  Recoupling Energy:                                              -0.0067550769
     4 OT DIIS     0.15E+00   42.9     0.00004761     -1093.6695549191 -2.45E-04
  Decoupling Energy:                                               0.0647293491
  Recoupling Energy:                                              -0.0067542868
     5 OT DIIS     0.15E+00   42.7     0.00002262     -1093.6695915519 -3.66E-05
  Decoupling Energy:                                               0.0647515047
  Recoupling Energy:                                              -0.0067546239
     6 OT DIIS     0.15E+00   42.8     0.00000790     -1093.6696022646 -1.07E-05
  Decoupling Energy:                                               0.0647617654
  Recoupling Energy:                                              -0.0067546831
     7 OT DIIS     0.15E+00   42.7     0.00000633     -1093.6696047266 -2.46E-06
  Decoupling Energy:                                               0.0647635327
  Recoupling Energy:                                              -0.0067544995
     8 OT DIIS     0.15E+00   42.8     0.00000407     -1093.6696068074 -2.08E-06
  Decoupling Energy:                                               0.0647715249
  Recoupling Energy:                                              -0.0067545407
     9 OT DIIS     0.15E+00   42.7     0.00000332     -1093.6696080917 -1.28E-06
  Decoupling Energy:                                               0.0647809671
  Recoupling Energy:                                              -0.0067544836
    10 OT DIIS     0.15E+00   42.8     0.00000276     -1093.6696095719 -1.48E-06
  Decoupling Energy:                                               0.0647868046
  Recoupling Energy:                                              -0.0067544627
    11 OT DIIS     0.15E+00   42.7     0.00000235     -1093.6696105203 -9.48E-07
  Decoupling Energy:                                               0.0647977531
  Recoupling Energy:                                              -0.0067544623
    12 OT DIIS     0.15E+00   42.8     0.00000201     -1093.6696116489 -1.13E-06
  Decoupling Energy:                                               0.0648021909
  Recoupling Energy:                                              -0.0067544608
    13 OT DIIS     0.15E+00   42.7     0.00000227     -1093.6696121645 -5.16E-07
  Decoupling Energy:                                               0.0648093230
  Recoupling Energy:                                              -0.0067544901
    14 OT DIIS     0.15E+00   42.8     0.00000164     -1093.6696127006 -5.36E-07
  Decoupling Energy:                                               0.0648158622
  Recoupling Energy:                                              -0.0067545043
    15 OT DIIS     0.15E+00   42.7     0.00000151     -1093.6696132263 -5.26E-07
  Decoupling Energy:                                               0.0648204254
  Recoupling Energy:                                              -0.0067545130
    16 OT DIIS     0.15E+00   42.8     0.00000132     -1093.6696136009 -3.75E-07
  Decoupling Energy:                                               0.0648278453
  Recoupling Energy:                                              -0.0067545829
    17 OT DIIS     0.15E+00   42.7     0.00000111     -1093.6696140256 -4.25E-07
  Decoupling Energy:                                               0.0648322703
  Recoupling Energy:                                              -0.0067545872
    18 OT DIIS     0.15E+00   42.8     0.00000100     -1093.6696142804 -2.55E-07

  *** SCF run converged in    18 steps ***


  Electronic density on regular grids:       -654.0006755439       -0.0006755439
  Core density on regular grids:              654.9999999997       -0.0000000003
  Total charge density on r-space grids:        0.9993244558
  Total charge density g-space grids:           0.9993244558

  Overlap energy of the core charge distribution:               0.00004971511699
  Self energy of the core charge distribution:              -2459.11679630764229
  Core Hamiltonian energy:                                    756.98414012263675
  Hartree energy:                                            1001.04498183878604
  Exchange-correlation energy:                               -242.88482713522433
  Hartree-Fock Exchange energy:                               -54.30475262043790
  QM/MM Electrostatic energy:                                 -95.39240989361723

  Total energy:                                             -1093.66961428038212

  outer SCF iter =    1 RMS gradient =   0.10E-05 energy =      -1093.6696142804
  outer SCF loop converged in   1 iterations or   18 steps

  Decoupling Energy:                                               0.0648351292
  Recoupling Energy:                                              -0.0067546049

 ENERGY| Total FORCE_EVAL ( QMMM ) energy [a.u.]:          -1458.847258534268803

 MD| ***************************************************************************
 MD| Step number                                                               3
 MD| Time [fs]                                                          3.000000
 MD| Conserved quantity [hartree]                            -0.125066650087E+04
 MD| ---------------------------------------------------------------------------
 MD|                                          Instantaneous             Averages
 MD| CPU time per MD step [s]                    892.804850          1308.658525
 MD| Energy drift per atom [K]           0.534616940890E+01   0.512571564554E+01
 MD| Potential energy [hartree]         -0.145884725853E+04  -0.144988923343E+04
 MD| Total kinetic energy [hartree]      0.208180757663E+03   0.200953705150E+03
 MD| QM kinetic energy [hartree]         0.400994231910E+00   0.384107337870E+00
 MD| Total temperature [K]                       290.381055           280.300396
 MD| QM temperature [K]                          333.659585           319.608325
 MD| ***************************************************************************

  Translating the system in order to center the QM fragment in the QM box.

 Number of electrons:                                                        654
 Number of occupied orbitals:                                                327
 Number of molecular orbitals:                                               327

 Number of orbital functions:                                               2313
 Number of independent orbital functions:                                   2313

 Extrapolation method: ASPC


 SCF WAVEFUNCTION OPTIMIZATION

  ----------------------------------- OT ---------------------------------------
  Minimizer      : DIIS                : direct inversion
                                         in the iterative subspace
                                         using   7 DIIS vectors
                                         safer DIIS on
  Preconditioner : FULL_ALL            : diagonalization, state selective
  Precond_solver : DEFAULT
  stepsize       :    0.15000000                  energy_gap     :    0.08000000
  eps_taylor     :   0.10000E-15                  max_taylor     :             4
  ----------------------------------- OT ---------------------------------------

  Step     Update method      Time    Convergence         Total energy    Change
  ------------------------------------------------------------------------------
  Decoupling Energy:                                               0.0648565234
  Recoupling Energy:                                              -0.0067530118

 *** WARNING in hfx_energy_potential.F:592 :: The Kohn Sham matrix is not  ***
 *** 100% occupied. This may result in incorrect Hartree-Fock results. Try ***
 *** to decrease EPS_PGF_ORB and EPS_FILTER_MATRIX in the QS section. For  ***
 *** more information see FAQ: https://www.cp2k.org/faq:hfx_eps_warning    ***

     1 OT DIIS     0.15E+00   75.2     0.00011822     -1091.2941344617 -1.09E+03
  Decoupling Energy:                                               0.0647908872
  Recoupling Energy:                                              -0.0067497790
     2 OT DIIS     0.15E+00   41.3     0.00007329     -1091.2950361500 -9.02E-04
  Decoupling Energy:                                               0.0648865936
  Recoupling Energy:                                              -0.0067537731
     3 OT DIIS     0.15E+00   41.3     0.00006897     -1091.2951586430 -1.22E-04
  Decoupling Energy:                                               0.0648573035
  Recoupling Energy:                                              -0.0067518230
     4 OT DIIS     0.15E+00   41.3     0.00002683     -1091.2952808924 -1.22E-04
  Decoupling Energy:                                               0.0648336798
  Recoupling Energy:                                              -0.0067514849
     5 OT DIIS     0.15E+00   41.3     0.00001592     -1091.2952948352 -1.39E-05
  Decoupling Energy:                                               0.0648496974
  Recoupling Energy:                                              -0.0067517837
     6 OT DIIS     0.15E+00   41.3     0.00000552     -1091.2952999788 -5.14E-06
  Decoupling Energy:                                               0.0648503619
  Recoupling Energy:                                              -0.0067517716
     7 OT DIIS     0.15E+00   41.3     0.00000494     -1091.2953017579 -1.78E-06
  Decoupling Energy:                                               0.0648484114
  Recoupling Energy:                                              -0.0067516845
     8 OT DIIS     0.15E+00   41.3     0.00000402     -1091.2953033835 -1.63E-06
  Decoupling Energy:                                               0.0648476862
  Recoupling Energy:                                              -0.0067516606
     9 OT DIIS     0.15E+00   41.3     0.00000351     -1091.2953050627 -1.68E-06
  Decoupling Energy:                                               0.0648480125
  Recoupling Energy:                                              -0.0067515895
    10 OT DIIS     0.15E+00   41.3     0.00000318     -1091.2953078580 -2.80E-06
  Decoupling Energy:                                               0.0648465656
  Recoupling Energy:                                              -0.0067515337
    11 OT DIIS     0.15E+00   41.3     0.00000310     -1091.2953107078 -2.85E-06
  Decoupling Energy:                                               0.0648454725
  Recoupling Energy:                                              -0.0067514335
    12 OT DIIS     0.15E+00   41.3     0.00000273     -1091.2953138093 -3.10E-06
  Decoupling Energy:                                               0.0648428249
  Recoupling Energy:                                              -0.0067513530
    13 OT DIIS     0.15E+00   41.3     0.00000279     -1091.2953164977 -2.69E-06
  Decoupling Energy:                                               0.0648432178
  Recoupling Energy:                                              -0.0067513208
    14 OT DIIS     0.15E+00   41.3     0.00000246     -1091.2953185206 -2.02E-06
  Decoupling Energy:                                               0.0648411431
  Recoupling Energy:                                              -0.0067512540
    15 OT DIIS     0.15E+00   41.3     0.00000218     -1091.2953202934 -1.77E-06
  Decoupling Energy:                                               0.0648391040
  Recoupling Energy:                                              -0.0067511912
    16 OT DIIS     0.15E+00   41.3     0.00000215     -1091.2953217905 -1.50E-06
  Decoupling Energy:                                               0.0648367347
  Recoupling Energy:                                              -0.0067511354
    17 OT DIIS     0.15E+00   41.3     0.00000425     -1091.2953238696 -2.08E-06
  Decoupling Energy:                                               0.0648373622
  Recoupling Energy:                                              -0.0067511402
    18 OT DIIS     0.15E+00   41.3     0.00000205     -1091.2953238031  6.65E-08
  Decoupling Energy:                                               0.0648348303
  Recoupling Energy:                                              -0.0067510638
    19 OT DIIS     0.15E+00   41.3     0.00000182     -1091.2953250262 -1.22E-06
  Decoupling Energy:                                               0.0648335432
  Recoupling Energy:                                              -0.0067510173
    20 OT DIIS     0.15E+00   41.3     0.00000168     -1091.2953260405 -1.01E-06
  Decoupling Energy:                                               0.0648305371
  Recoupling Energy:                                              -0.0067509489
    21 OT DIIS     0.15E+00   41.3     0.00000158     -1091.2953268780 -8.38E-07
  Decoupling Energy:                                               0.0648287297
  Recoupling Energy:                                              -0.0067508887
    22 OT DIIS     0.15E+00   41.3     0.00000153     -1091.2953275510 -6.73E-07
  Decoupling Energy:                                               0.0648254484
  Recoupling Energy:                                              -0.0067508046
    23 OT DIIS     0.15E+00   41.3     0.00000147     -1091.2953283641 -8.13E-07
  Decoupling Energy:                                               0.0648236732
  Recoupling Energy:                                              -0.0067507621
    24 OT DIIS     0.15E+00   41.3     0.00000146     -1091.2953287827 -4.19E-07
  Decoupling Energy:                                               0.0648166818
  Recoupling Energy:                                              -0.0067505880
    25 OT SD       0.15E+00   41.3     0.00000123     -1091.2953299619 -1.18E-06
  Decoupling Energy:                                               0.0648157801
  Recoupling Energy:                                              -0.0067505756
    26 OT DIIS     0.15E+00   41.3     0.00000135     -1091.2953300953 -1.33E-07
  Decoupling Energy:                                               0.0648115153
  Recoupling Energy:                                              -0.0067504789
    27 OT DIIS     0.15E+00   41.3     0.00000107     -1091.2953305335 -4.38E-07
  Decoupling Energy:                                               0.0648085058
  Recoupling Energy:                                              -0.0067504180
    28 OT DIIS     0.15E+00   41.3     0.00000099     -1091.2953309231 -3.90E-07

  *** SCF run converged in    28 steps ***


  Electronic density on regular grids:       -654.0006181773       -0.0006181773
  Core density on regular grids:              654.9999999992       -0.0000000008
  Total charge density on r-space grids:        0.9993818218
  Total charge density g-space grids:           0.9993818218

  Overlap energy of the core charge distribution:               0.00004773133933
  Self energy of the core charge distribution:              -2459.11679630764229
  Core Hamiltonian energy:                                    756.72463338391412
  Hartree energy:                                            1001.22233876553969
  Exchange-correlation energy:                               -242.83916913507514
  Hartree-Fock Exchange energy:                               -54.29584479913264
  QM/MM Electrostatic energy:                                 -92.99054056203673

  Total energy:                                             -1091.29533092309384

  outer SCF iter =    1 RMS gradient =   0.99E-06 energy =      -1091.2953309231
  outer SCF loop converged in   1 iterations or   28 steps

  Decoupling Energy:                                               0.0648047147
  Recoupling Energy:                                              -0.0067503438

 ENERGY| Total FORCE_EVAL ( QMMM ) energy [a.u.]:          -1463.295019272793070

 MD| ***************************************************************************
 MD| Step number                                                               4
 MD| Time [fs]                                                          4.000000
 MD| Conserved quantity [hartree]                            -0.124784731936E+04
 MD| ---------------------------------------------------------------------------
 MD|                                          Instantaneous             Averages
 MD| CPU time per MD step [s]                   1280.282819          1301.564599
 MD| Energy drift per atom [K]           0.112446358529E+02   0.665544569738E+01
 MD| Potential energy [hartree]         -0.146329501927E+04  -0.145324067989E+04
 MD| Total kinetic energy [hartree]      0.215447699909E+03   0.204577203840E+03
 MD| QM kinetic energy [hartree]         0.443571416824E+00   0.398973357608E+00
 MD| Total temperature [K]                       300.517353           285.354635
 MD| QM temperature [K]                          369.087241           331.978054
 MD| ***************************************************************************

  Translating the system in order to center the QM fragment in the QM box.

 Number of electrons:                                                        654
 Number of occupied orbitals:                                                327
 Number of molecular orbitals:                                               327

 Number of orbital functions:                                               2313
 Number of independent orbital functions:                                   2313

 Extrapolation method: ASPC


 SCF WAVEFUNCTION OPTIMIZATION

  ----------------------------------- OT ---------------------------------------
  Minimizer      : DIIS                : direct inversion
                                         in the iterative subspace
                                         using   7 DIIS vectors
                                         safer DIIS on
  Preconditioner : FULL_ALL            : diagonalization, state selective
  Precond_solver : DEFAULT
  stepsize       :    0.15000000                  energy_gap     :    0.08000000
  eps_taylor     :   0.10000E-15                  max_taylor     :             4
  ----------------------------------- OT ---------------------------------------

  Step     Update method      Time    Convergence         Total energy    Change
  ------------------------------------------------------------------------------
  Decoupling Energy:                                               0.0648314926
  Recoupling Energy:                                              -0.0067487876

 *** WARNING in hfx_energy_potential.F:592 :: The Kohn Sham matrix is not  ***
 *** 100% occupied. This may result in incorrect Hartree-Fock results. Try ***
 *** to decrease EPS_PGF_ORB and EPS_FILTER_MATRIX in the QS section. For  ***
 *** more information see FAQ: https://www.cp2k.org/faq:hfx_eps_warning    ***

     1 OT DIIS     0.15E+00   75.7     0.00009242     -1088.6141890757 -1.09E+03
  Decoupling Energy:                                               0.0648613182
  Recoupling Energy:                                              -0.0067478612
     2 OT DIIS     0.15E+00   41.9     0.00006751     -1088.6146911899 -5.02E-04
  Decoupling Energy:                                               0.0648462859
  Recoupling Energy:                                              -0.0067479610
     3 OT DIIS     0.15E+00   41.9     0.00006471     -1088.6147653145 -7.41E-05
  Decoupling Energy:                                               0.0648648159
  Recoupling Energy:                                              -0.0067482761
     4 OT DIIS     0.15E+00   41.8     0.00002863     -1088.6148521962 -8.69E-05
  Decoupling Energy:                                               0.0648540315
  Recoupling Energy:                                              -0.0067476324
     5 OT DIIS     0.15E+00   41.8     0.00000961     -1088.6148759409 -2.37E-05
  Decoupling Energy:                                               0.0648580603
  Recoupling Energy:                                              -0.0067477108
     6 OT DIIS     0.15E+00   41.8     0.00000833     -1088.6148798606 -3.92E-06
  Decoupling Energy:                                               0.0648573431
  Recoupling Energy:                                              -0.0067475891
     7 OT DIIS     0.15E+00   41.8     0.00000638     -1088.6148835730 -3.71E-06
  Decoupling Energy:                                               0.0648482762
  Recoupling Energy:                                              -0.0067472513
     8 OT DIIS     0.15E+00   41.8     0.00000581     -1088.6148901964 -6.62E-06
  Decoupling Energy:                                               0.0648489998
  Recoupling Energy:                                              -0.0067471692
     9 OT DIIS     0.15E+00   41.9     0.00000513     -1088.6148956074 -5.41E-06
  Decoupling Energy:                                               0.0648362376
  Recoupling Energy:                                              -0.0067467217
    10 OT DIIS     0.15E+00   41.9     0.00000419     -1088.6149041259 -8.52E-06
  Decoupling Energy:                                               0.0648301485
  Recoupling Energy:                                              -0.0067464798
    11 OT DIIS     0.15E+00   41.9     0.00000358     -1088.6149081671 -4.04E-06
  Decoupling Energy:                                               0.0648178824
  Recoupling Energy:                                              -0.0067461706
    12 OT DIIS     0.15E+00   41.8     0.00000317     -1088.6149132152 -5.05E-06
  Decoupling Energy:                                               0.0648099726
  Recoupling Energy:                                              -0.0067459858
    13 OT DIIS     0.15E+00   41.9     0.00000327     -1088.6149150851 -1.87E-06
  Decoupling Energy:                                               0.0647993490
  Recoupling Energy:                                              -0.0067457632
    14 OT DIIS     0.15E+00   41.8     0.00000258     -1088.6149179978 -2.91E-06
  Decoupling Energy:                                               0.0647895665
  Recoupling Energy:                                              -0.0067455635
    15 OT DIIS     0.15E+00   41.9     0.00000262     -1088.6149197786 -1.78E-06
  Decoupling Energy:                                               0.0647773060
  Recoupling Energy:                                              -0.0067453404
    16 OT DIIS     0.15E+00   41.8     0.00000203     -1088.6149215081 -1.73E-06
  Decoupling Energy:                                               0.0647688724
  Recoupling Energy:                                              -0.0067452023
    17 OT DIIS     0.15E+00   41.9     0.00000180     -1088.6149227543 -1.25E-06
  Decoupling Energy:                                               0.0647579759
  Recoupling Energy:                                              -0.0067450069
    18 OT DIIS     0.15E+00   41.8     0.00000154     -1088.6149235978 -8.43E-07
  Decoupling Energy:                                               0.0647525507
  Recoupling Energy:                                              -0.0067449011
    19 OT DIIS     0.15E+00   41.9     0.00000137     -1088.6149240961 -4.98E-07
  Decoupling Energy:                                               0.0647474673
  Recoupling Energy:                                              -0.0067448226
    20 OT DIIS     0.15E+00   41.9     0.00000120     -1088.6149244614 -3.65E-07
  Decoupling Energy:                                               0.0647436401
  Recoupling Energy:                                              -0.0067447455
    21 OT DIIS     0.15E+00   41.9     0.00000125     -1088.6149247149 -2.54E-07
  Decoupling Energy:                                               0.0647406038
  Recoupling Energy:                                              -0.0067446915
    22 OT DIIS     0.15E+00   41.8     0.00000109     -1088.6149249154 -2.01E-07
  Decoupling Energy:                                               0.0647373494
  Recoupling Energy:                                              -0.0067446251
    23 OT DIIS     0.15E+00   41.9     0.00000109     -1088.6149251443 -2.29E-07
  Decoupling Energy:                                               0.0647327213
  Recoupling Energy:                                              -0.0067445406
    24 OT DIIS     0.15E+00   41.8     0.00000093     -1088.6149253961 -2.52E-07

  *** SCF run converged in    24 steps ***


  Electronic density on regular grids:       -654.0005258493       -0.0005258493
  Core density on regular grids:              654.9999999995       -0.0000000005
  Total charge density on r-space grids:        0.9994741502
  Total charge density g-space grids:           0.9994741502

  Overlap energy of the core charge distribution:               0.00004528097277
  Self energy of the core charge distribution:              -2459.11679630764229
  Core Hamiltonian energy:                                    756.55496977479345
  Hartree energy:                                            1001.33198390185589
  Exchange-correlation energy:                               -242.81475489929849
  Hartree-Fock Exchange energy:                               -54.29313544532388
  QM/MM Electrostatic energy:                                 -90.27723770141620

  Total energy:                                             -1088.61492539605888

  outer SCF iter =    1 RMS gradient =   0.93E-06 energy =      -1088.6149253961
  outer SCF loop converged in   1 iterations or   24 steps

  Decoupling Energy:                                               0.0647302351
  Recoupling Energy:                                              -0.0067444868

 ENERGY| Total FORCE_EVAL ( QMMM ) energy [a.u.]:          -1483.429482712132312

 MD| ***************************************************************************
 MD| Step number                                                               5
 MD| Time [fs]                                                          5.000000
 MD| Conserved quantity [hartree]                            -0.125265383287E+04
 MD| ---------------------------------------------------------------------------
 MD|                                          Instantaneous             Averages
 MD| CPU time per MD step [s]                   1127.679974          1266.787674
 MD| Energy drift per atom [K]           0.118815010730E+01   0.556198657937E+01
 MD| Potential energy [hartree]         -0.148342948271E+04  -0.145927844045E+04
 MD| Total kinetic energy [hartree]      0.230775649839E+03   0.209816893040E+03
 MD| QM kinetic energy [hartree]         0.488174288969E+00   0.416813543880E+00
 MD| Total temperature [K]                       321.897554           292.663219
 MD| QM temperature [K]                          406.200433           346.822530
 MD| ***************************************************************************

  Translating the system in order to center the QM fragment in the QM box.

 Number of electrons:                                                        654
 Number of occupied orbitals:                                                327
 Number of molecular orbitals:                                               327

 Number of orbital functions:                                               2313
 Number of independent orbital functions:                                   2313

 Extrapolation method: ASPC


 SCF WAVEFUNCTION OPTIMIZATION

  ----------------------------------- OT ---------------------------------------
  Minimizer      : DIIS                : direct inversion
                                         in the iterative subspace
                                         using   7 DIIS vectors
                                         safer DIIS on
  Preconditioner : FULL_ALL            : diagonalization, state selective
  Precond_solver : DEFAULT
  stepsize       :    0.15000000                  energy_gap     :    0.08000000
  eps_taylor     :   0.10000E-15                  max_taylor     :             4
  ----------------------------------- OT ---------------------------------------

  Step     Update method      Time    Convergence         Total energy    Change
  ------------------------------------------------------------------------------
  Decoupling Energy:                                               0.0644458191
  Recoupling Energy:                                              -0.0067463123

 *** WARNING in hfx_energy_potential.F:592 :: The Kohn Sham matrix is not  ***
 *** 100% occupied. This may result in incorrect Hartree-Fock results. Try ***
 *** to decrease EPS_PGF_ORB and EPS_FILTER_MATRIX in the QS section. For  ***
 *** more information see FAQ: https://www.cp2k.org/faq:hfx_eps_warning    ***

     1 OT DIIS     0.15E+00   75.6     0.00024478     -1085.7764402627 -1.09E+03
  Decoupling Energy:                                               0.0648329385
  Recoupling Energy:                                              -0.0067424074
     2 OT DIIS     0.15E+00   41.6     0.00028929     -1085.7766447581 -2.04E-04
  Decoupling Energy:                                               0.0648027905
  Recoupling Energy:                                              -0.0067436807
     3 OT DIIS     0.15E+00   41.6     0.00011566     -1085.7784438975 -1.80E-03
  Decoupling Energy:                                               0.0647921081
  Recoupling Energy:                                              -0.0067440227
     4 OT DIIS     0.15E+00   41.6     0.00006257     -1085.7786591244 -2.15E-04
  Decoupling Energy:                                               0.0647897780
  Recoupling Energy:                                              -0.0067431090
     5 OT DIIS     0.15E+00   41.6     0.00002613     -1085.7787751785 -1.16E-04
  Decoupling Energy:                                               0.0648079606
  Recoupling Energy:                                              -0.0067433055
     6 OT DIIS     0.15E+00   41.6     0.00002010     -1085.7788116479 -3.65E-05
  Decoupling Energy:                                               0.0648276945
  Recoupling Energy:                                              -0.0067432282
     7 OT DIIS     0.15E+00   41.6     0.00001323     -1085.7788319485 -2.03E-05
  Decoupling Energy:                                               0.0648301244
  Recoupling Energy:                                              -0.0067429471
     8 OT DIIS     0.15E+00   41.6     0.00001077     -1085.7788472890 -1.53E-05
  Decoupling Energy:                                               0.0648538882
  Recoupling Energy:                                              -0.0067429804
     9 OT DIIS     0.15E+00   41.6     0.00000780     -1085.7788674196 -2.01E-05
  Decoupling Energy:                                               0.0648657480
  Recoupling Energy:                                              -0.0067427487
    10 OT DIIS     0.15E+00   41.6     0.00000608     -1085.7788807472 -1.33E-05
  Decoupling Energy:                                               0.0648688255
  Recoupling Energy:                                              -0.0067426371
    11 OT DIIS     0.15E+00   41.6     0.00000539     -1085.7788862469 -5.50E-06
  Decoupling Energy:                                               0.0648733740
  Recoupling Energy:                                              -0.0067426223
    12 OT DIIS     0.15E+00   41.6     0.00000423     -1085.7788891876 -2.94E-06
  Decoupling Energy:                                               0.0648713972
  Recoupling Energy:                                              -0.0067425451
    13 OT DIIS     0.15E+00   41.6     0.00000411     -1085.7788907501 -1.56E-06
  Decoupling Energy:                                               0.0648664769
  Recoupling Energy:                                              -0.0067424332
    14 OT DIIS     0.15E+00   41.6     0.00000351     -1085.7788941035 -3.35E-06
  Decoupling Energy:                                               0.0648634409
  Recoupling Energy:                                              -0.0067423628
    15 OT DIIS     0.15E+00   41.6     0.00000327     -1085.7788962701 -2.17E-06
  Decoupling Energy:                                               0.0648552916
  Recoupling Energy:                                              -0.0067422330
    16 OT DIIS     0.15E+00   41.6     0.00000296     -1085.7788985528 -2.28E-06
  Decoupling Energy:                                               0.0648436321
  Recoupling Energy:                                              -0.0067420822
    17 OT DIIS     0.15E+00   41.6     0.00000187     -1085.7789019877 -3.43E-06
  Decoupling Energy:                                               0.0648364307
  Recoupling Energy:                                              -0.0067419520
    18 OT DIIS     0.15E+00   41.6     0.00000169     -1085.7789030849 -1.10E-06
  Decoupling Energy:                                               0.0648318439
  Recoupling Energy:                                              -0.0067419174
    19 OT DIIS     0.15E+00   41.6     0.00000111     -1085.7789036660 -5.81E-07
  Decoupling Energy:                                               0.0648310880
  Recoupling Energy:                                              -0.0067419018
    20 OT DIIS     0.15E+00   41.6     0.00000112     -1085.7789038646 -1.99E-07
  Decoupling Energy:                                               0.0648292811
  Recoupling Energy:                                              -0.0067418692
    21 OT DIIS     0.15E+00   41.6     0.00000096     -1085.7789040082 -1.44E-07

  *** SCF run converged in    21 steps ***


  Electronic density on regular grids:       -654.0005120269       -0.0005120269
  Core density on regular grids:              654.9999999997       -0.0000000003
  Total charge density on r-space grids:        0.9994879728
  Total charge density g-space grids:           0.9994879728

  Overlap energy of the core charge distribution:               0.00004577906285
  Self energy of the core charge distribution:              -2459.11679630764229
  Core Hamiltonian energy:                                    756.51632440104515
  Hartree energy:                                            1001.36386462167945
  Exchange-correlation energy:                               -242.81681315274909
  Hartree-Fock Exchange energy:                               -54.29679001074211
  QM/MM Electrostatic energy:                                 -87.42873933888191

  Total energy:                                             -1085.77890400822798

[...]
 dbcsr_destroy                    33427 14.7    0.034    0.035    0.050    0.050
 hfx_load_balance_range               1 14.0    0.002    0.003    0.032    0.050
 clean_intra_force_kind               1  5.0    0.048    0.049    0.048    0.049
 build_qs_neighbor_lists              7  6.9    0.001    0.001    0.047    0.049
 dbcsr_iterator_seek              35037 17.3    0.038    0.049    0.038    0.049
 dbcsr_col_vec_to_rep_row           162 15.9    0.001    0.001    0.027    0.047
 psf_post_process                     1  6.0    0.045    0.046    0.045    0.046
 mp_bcast_dv                        178 16.5    0.024    0.044    0.024    0.044
 ddapc_eval_gfunc                     7  9.9    0.036    0.043    0.036    0.043
 force_intra_control                  7  4.9    0.040    0.041    0.040    0.041
 get_fft_scratch                   2797 16.6    0.039    0.040    0.039    0.040
 topology_coordinate_pack_1           2  5.0    0.038    0.038    0.038    0.038
 setup_rec_index_2d                6336 15.0    0.034    0.037    0.034    0.037
 dbcsr_set                         1549 13.2    0.001    0.002    0.035    0.036
 ewald_ddapc_force                   14  9.9    0.017    0.019    0.036    0.036
 get_current_loads                   84 11.9    0.005    0.006    0.022    0.036
 dbcsr_zero                        1549 14.2    0.033    0.035    0.033    0.035
 pw_grid_assign                       8  7.4    0.033    0.035    0.035    0.035
 grid_create_task_list                7  9.9    0.020    0.034    0.020    0.034
 dbcsr_make_dists_dense            2781 14.3    0.027    0.028    0.033    0.033
 force_field_pack_eicut               1  6.0    0.033    0.033    0.033    0.033
 mp_isend_dm3                      2760 14.1    0.032    0.033    0.032    0.033
 pw_scale                           162 11.8    0.031    0.033    0.031    0.033
 mp_isend_iv                      31652 17.0    0.023    0.032    0.023    0.032
 mp_alltoall_l                       91 12.8    0.016    0.031    0.016    0.031
 hfx_update_load_balance             12 12.5    0.021    0.021    0.029    0.031
 build_overlap_matrix_low            14  6.9    0.024    0.025    0.029    0.031
 dbcsr_make_index_list             6336 15.0    0.030    0.030    0.030    0.030
 fft3d_s                              1  2.0    0.000    0.000    0.029    0.029
 restraint_control                    7  3.9    0.007    0.008    0.028    0.029
 dbcsr_data_copy_aa2               1879 15.6    0.020    0.028    0.020    0.028
 build_kinetic_matrix_low            14  6.9    0.023    0.025    0.026    0.028
 post_process_LJ_info                 1  8.0    0.027    0.028    0.027    0.028
 remove_restart_info                  1  2.0    0.024    0.028    0.024    0.028
 force_nonbond_manybody               7  4.9    0.025    0.026    0.025    0.026
 build_core_ppnl                      7  7.9    0.023    0.025    0.023    0.025
 tree_to_linear_d                   547 15.4    0.023    0.024    0.023    0.024
 section_velocity_val_set             1  7.0    0.020    0.024    0.020    0.024
 topology_coordinate_pack_6           2  5.0    0.024    0.024    0.024    0.024
 density_nonbond                      7  4.9    0.023    0.024    0.023    0.024
 topology_generate_molecule           2  5.0    0.023    0.023    0.023    0.024
 mp_max_d                             7  5.3    0.005    0.023    0.005    0.023
 bonded_correct_gaussian              7  4.9    0.022    0.022    0.023    0.023
 transpose_index_local             1261 15.0    0.003    0.004    0.020    0.022
 dbcsr_fill_wm_from_matrix          627 14.4    0.014    0.020    0.016    0.022
 topology_coordinate_pack_5           2  5.0    0.021    0.021    0.021    0.021
 mp_sum_b                          5583 14.3    0.021    0.021    0.021    0.021
 create_local_tasks                   7 10.9    0.007    0.009    0.019    0.021
 dbcsr_reserve_blocks               810 15.1    0.016    0.017    0.019    0.021
 mp_sum_iv                          204 10.9    0.014    0.021    0.014    0.021
 cp_fm_create                       179 11.0    0.017    0.020    0.017    0.020
 energy_manybody                      7  4.9    0.020    0.020    0.020    0.020
 mp_irecv_iv                      31652 17.0    0.013    0.019    0.013    0.019
 create_local_fixd_list               7  4.9    0.018    0.019    0.018    0.019
 copy_fm_to_dbcsr_bc                106 11.8    0.006    0.006    0.016    0.018
 fill_hash_tables                  3168 17.0    0.017    0.018    0.017    0.018
 build_neighbor_lists_sac_ppl         7  7.9    0.017    0.018    0.017    0.018
 dbcsr_add_on_diag                  324 12.9    0.001    0.001    0.016    0.017
 rot_ana                              1  3.0    0.013    0.013    0.017    0.017
 add_coarse2fine_comm                21  8.9    0.006    0.006    0.016    0.017
 cp_decpl_ddapc_forces               14 10.9    0.015    0.016    0.017    0.017
 copy_dbcsr_to_fm_bc                117 11.5    0.014    0.016    0.015    0.016
 cp_dbcsr_alloc_block_from_nbl       56  7.6    0.005    0.005    0.016    0.016
 dbcsr_switch_data_area           19612 16.8    0.010    0.010    0.015    0.015
 dbcsr_cholesky_invert                7 12.9    0.010    0.010    0.015    0.015
 merge_index                       7499 16.6    0.015    0.015    0.015    0.015
 mp_cart_create                     126 12.2    0.013    0.015    0.013    0.015
 dbcsr_distribution_new           16684 14.7    0.014    0.015    0.014    0.015
 cp_dbcsr_cholesky_decompose          7 12.9    0.007    0.007    0.013    0.015
 force_field_qeff_output              1  5.0    0.014    0.014    0.014    0.014
 topology_molecules_check             1  6.0    0.014    0.014    0.014    0.014
 pw_grid_remap                        5  8.8    0.007    0.008    0.012    0.014
 build_neighbor_lists_sap_ppnl        7  7.9    0.012    0.013    0.012    0.013
 mp_rank_compare                   2796 16.6    0.011    0.012    0.011    0.012
 mp_recv_dv                         120 10.9    0.001    0.012    0.001    0.012
 mp_alltoall_l11v                     7 11.9    0.011    0.012    0.011    0.012
 dbcsr_reserve_all_blocks           754 14.6    0.001    0.001    0.010    0.011
 multiply_cannon_multrec_finali    3168 17.0    0.002    0.002    0.010    0.011
 cp_fm_triangular_multiply            7 10.7    0.011    0.011    0.011    0.011
 dbcsr_scale_anytype               4147 15.2    0.007    0.008    0.009    0.011
 dbcsr_make_dbcsr_index           16657 17.0    0.010    0.011    0.010    0.011
 dbcsr_scale_d                      317 13.9    0.000    0.000    0.009    0.011
 mp_alltoall_i11v                  1674 14.4    0.009    0.011    0.009    0.011
 build_subspace                     162 13.9    0.001    0.001    0.009    0.010
 dbcsr_scale_by_vector_anytype      155 11.0    0.008    0.010    0.008    0.010
 mp_comm_compare                   2820 16.5    0.009    0.010    0.009    0.010
 mp_environ_l                      4067 14.9    0.009    0.010    0.009    0.010
 init_qs_kind_set                     1  4.0    0.000    0.000    0.009    0.009
 init_qs_kind                         6  5.0    0.000    0.000    0.009    0.009
 init_orb_basis_set                   6  6.0    0.000    0.000    0.009    0.009
 init_cphi_and_sphi                   6  7.0    0.009    0.009    0.009    0.009
 compute_max_radius                   1  7.0    0.009    0.009    0.009    0.009
 cp_fm_redistribute_start            21 12.2    0.004    0.005    0.008    0.009
 mp_environ_c                      2796 16.6    0.008    0.009    0.008    0.009
 topology_connectivity_pack_13        2  5.0    0.009    0.009    0.009    0.009
 dbcsr_mm_multrec_finalize         3168 18.0    0.007    0.007    0.008    0.009
 distribute_molecules_1d              2  4.5    0.008    0.008    0.008    0.008
 get_atomic_block_maps                7 12.9    0.005    0.005    0.007    0.008
 topology_connectivity_pack_11        2  5.0    0.008    0.008    0.008    0.008
 qmmm_connectivity_control            1  5.0    0.007    0.008    0.007    0.008
 pw_nn_compose_r                     46  4.0    0.007    0.008    0.007    0.008
 fix_atom_control                     7  3.9    0.007    0.007    0.007    0.007
 mp_sum_im3                           5  9.8    0.005    0.007    0.005    0.007
 build_neighbor_lists_sab_all         7  7.9    0.007    0.007    0.007    0.007
 topology_connectivity_pack_12        2  5.0    0.007    0.007    0.007    0.007
 pw_pool_give_back_pw              5743 12.2    0.006    0.007    0.006    0.007
 create_col_vec_from_matrix         324 13.9    0.001    0.001    0.006    0.007
 force_field_pack_impr                1  6.0    0.007    0.007    0.007    0.007
 topology_connectivity_pack_2         2  5.0    0.006    0.007    0.006    0.007
 build_neighbor_lists_sab_orb         7  7.9    0.006    0.006    0.006    0.006
 topology_connectivity_pack_14        2  5.0    0.006    0.006    0.006    0.006
 topology_connectivity_pack_4         2  5.0    0.006    0.006    0.006    0.006
 mp_cart_sub                        236 12.5    0.006    0.006    0.006    0.006
 mp_sum_i                            10  4.7    0.003    0.006    0.003    0.006
 topology_connectivity_pack_10        2  5.0    0.006    0.006    0.006    0.006
 pw_pool_create_pw                 5114 12.2    0.004    0.004    0.005    0.006
 pw_poisson_rebuild                 176 11.4    0.005    0.005    0.005    0.005
 force_field_unique_impr              1  6.0    0.005    0.005    0.005    0.005
 force_field_pack_opbend              1  6.0    0.005    0.005    0.005    0.005
 topology_connectivity_pack_9         2  5.0    0.005    0.005    0.005    0.005
 mp_maxloc_dv                      1379  1.0    0.005    0.005    0.005    0.005
 mp_wait                              7  5.9    0.000    0.005    0.000    0.005
 dbcsr_index_prune_deleted         5562 16.3    0.005    0.005    0.005    0.005
 build_neighbor_lists_sab_core        7  7.9    0.005    0.005    0.005    0.005
 dbcsr_get_data_size_used          7912 15.6    0.004    0.004    0.004    0.004
 dbcsr_get_local_rows              5780 14.7    0.004    0.004    0.004    0.004
 qs_env_rebuild_rho                   7  7.9    0.000    0.000    0.004    0.004
 qs_rho_rebuild                       7  8.9    0.000    0.000    0.004    0.004
 dbcsr_make_index_local_row        6336 15.0    0.003    0.004    0.003    0.004
 diamat_all                           1  4.0    0.004    0.004    0.004    0.004
 mp_bcast_av                        355  1.0    0.001    0.001    0.004    0.004
 topology_connectivity_pack_5         2  5.0    0.003    0.003    0.003    0.003
 force_field_unique_opbend            1  6.0    0.003    0.003    0.003    0.003
 load_balance_replicated              7 10.9    0.001    0.001    0.003    0.003
 optimize_load_list                  14 11.9    0.000    0.000    0.002    0.003
 create_replicated_col_vec_from     162 13.9    0.001    0.001    0.003    0.003
 create_replicated_row_vec_from     162 13.9    0.000    0.001    0.003    0.003
 dbcsr_get_local_cols              5780 14.7    0.003    0.003    0.003    0.003
 mp_bcast_i3                         14 12.9    0.001    0.003    0.001    0.003
 compute_evals                      162 13.9    0.003    0.003    0.003    0.003
 dbcsr_matrix_vector_mult_local     162 15.9    0.002    0.002    0.002    0.003
 dbcsr_mm_sched_init               3168 17.0    0.002    0.002    0.003    0.003
 hfx_load_balance_opt                 2 12.5    0.003    0.003    0.003    0.003
 pw_create                          893 12.4    0.002    0.003    0.002    0.003
 offload_free_buffer                 49  6.5    0.001    0.003    0.001    0.003
 pw_grid_distribute                   8  7.4    0.002    0.002    0.003    0.003
 qs_scf_write_mos                   162  8.0    0.002    0.002    0.002    0.002
 topology_coordinate_pack_3           2  5.0    0.002    0.002    0.002    0.002
 grid_free_task_list                  1  2.0    0.002    0.002    0.002    0.002
 cp_fm_to_fm_matrix                  27  9.4    0.002    0.002    0.002    0.002
 mp_allgatherv_iv                     7 13.9    0.002    0.002    0.002    0.002
 mp_sum_root_iv                      14 12.9    0.001    0.002    0.001    0.002
 qs_scf_loop_print                  155  8.0    0.002    0.002    0.002    0.002
 create_fast_row_vec_access         162 15.9    0.000    0.000    0.002    0.002
 create_fast_row_vec_access_d       162 16.9    0.001    0.002    0.002    0.002
 rs_grid_create                      47  7.1    0.001    0.001    0.001    0.002
 hfx_load_balance_redist              2 12.5    0.001    0.001    0.001    0.002
 wfs_update                           7  5.9    0.000    0.000    0.001    0.002
 topology_connectivity_pack_6         2  5.0    0.002    0.002    0.002    0.002
 dbcsr_get_global_row_map          3168 14.0    0.001    0.001    0.001    0.001
 scf_c_write_parameters               1  4.0    0.000    0.001    0.000    0.001
 topology_coordinate_pack_7b          2  5.0    0.001    0.001    0.001    0.001
 mp_allgather_l                      91 12.8    0.001    0.001    0.001    0.001
 mp_max_iv                            7 13.9    0.001    0.001    0.001    0.001
 scf_post_calculation_gpw             7  5.9    0.000    0.000    0.001    0.001
 mp_isendrecv_lv                    420 13.5    0.001    0.001    0.001    0.001
 dbcsr_mm_sched_finalize           3168 19.0    0.001    0.001    0.001    0.001
 create_fast_col_vec_access         162 15.9    0.000    0.000    0.001    0.001
 topology_connectivity_pack_13_       2  5.0    0.001    0.001    0.001    0.001
 mp_sum_im                           20 10.8    0.001    0.001    0.001    0.001
 create_fast_col_vec_access_d       162 16.9    0.001    0.001    0.001    0.001
 qs_efield_local_operator           162 10.8    0.001    0.001    0.001    0.001
 cleanup_scf_loop                     7  7.9    0.000    0.000    0.001    0.001
 rs_grid_create_descriptor            5  6.8    0.000    0.000    0.001    0.001
 dbcsr_get_global_col_map          3168 14.0    0.001    0.001    0.001    0.001
 mpools_rebuild_fm_pools              1  5.0    0.001    0.001    0.001    0.001
 topology_constraint_pack             1  5.0    0.000    0.000    0.000    0.001
 mp_comm_free                       397 11.7    0.001    0.001    0.001    0.001
 write_available_results              7  6.9    0.000    0.000    0.001    0.001
 topology_constraint_pack_1           1  6.0    0.000    0.001    0.000    0.001
 cp_fm_to_fm_columns                  7 10.9    0.001    0.001    0.001    0.001
 mp_max_r                             1  2.0    0.001    0.001    0.001    0.001
 qs_efield_berry_phase              162 10.8    0.001    0.001    0.001    0.001
 force_field_pack_radius              1  6.0    0.001    0.001    0.001    0.001
 offload_create_buffer               61  8.5    0.000    0.001    0.000    0.001
 pw_hfx                             162 11.8    0.001    0.001    0.001    0.001
 topology_coordinate_pack_7a          2  5.0    0.001    0.001    0.001    0.001
 ot_scf_read_input                    7  7.9    0.000    0.000    0.000    0.001
 topology_connectivity_pack_1         2  5.0    0.001    0.001    0.001    0.001
 topology_coordinate_pack_10          2  5.0    0.000    0.001    0.000    0.001
 write_mo_free_results                7  7.9    0.000    0.000    0.000    0.001
 mp_comm_split                       14 13.4    0.000    0.001    0.000    0.001
 ot_readwrite_input                   7  8.9    0.000    0.001    0.000    0.001
 pw_grid_allocate                     8  7.4    0.000    0.000    0.000    0.000
 dbcsr_mm_hostdrv_init             3168 18.0    0.000    0.000    0.000    0.000
 topology_generate_molecule_PAR       2  6.0    0.000    0.000    0.000    0.000
 pw_poisson_set                       3  6.0    0.000    0.000    0.000    0.000
 topology_connectivity_pack_7         2  5.0    0.000    0.000    0.000    0.000
 topology_connectivity_pack_12_       2  5.0    0.000    0.000    0.000    0.000
 mp_sum_partial_im                   14 12.9    0.000    0.000    0.000    0.000
 qs_scf_ensure_work_matrices          7  5.9    0.000    0.000    0.000    0.000
 set_mo_occupation_1                163  9.9    0.000    0.000    0.000    0.000
 topology_connectivity_pack_11_       2  5.0    0.000    0.000    0.000    0.000
 hfx_create_basis_types               8  4.0    0.000    0.000    0.000    0.000
 qs_scf_print_scf_summary             7  7.9    0.000    0.000    0.000    0.000
 topology_connectivity_pack_3         2  5.0    0.000    0.000    0.000    0.000
 write_mo_dependent_results           7  7.9    0.000    0.000    0.000    0.000
 qmmm_coordinate_control              1  6.0    0.000    0.000    0.000    0.000
 init_interaction_radii               1  4.0    0.000    0.000    0.000    0.000
 topology_connectivity_pack_8         2  5.0    0.000    0.000    0.000    0.000
 cp_ddapc_apply_RF                  162 11.8    0.000    0.000    0.000    0.000
 topology_connectivity_pack_1.1       2  5.0    0.000    0.000    0.000    0.000
 qs_ks_did_change                   169  8.0    0.000    0.000    0.000    0.000
 cp_fm_scale_and_add                 14  9.0    0.000    0.000    0.000    0.000
 qs_scf_ensure_mos                    7  5.9    0.000    0.000    0.000    0.000
 dump_info_core_hamiltonian          14  6.9    0.000    0.000    0.000    0.000
 atom2d_build                         7  7.9    0.000    0.000    0.000    0.000
 cp_fm_release                      184 10.6    0.000    0.000    0.000    0.000
 distribute_molecules_2d              1  5.0    0.000    0.000    0.000    0.000
 update_motion                        1  6.0    0.000    0.000    0.000    0.000
 write_structure_data                 9  4.8    0.000    0.000    0.000    0.000
 force_field_pack_charge              1  6.0    0.000    0.000    0.000    0.000
 write_qs_particle_coordinates        8  3.9    0.000    0.000    0.000    0.000
 create_destination_list             14 11.9    0.000    0.000    0.000    0.000
 print_atomic_charges               162 14.8    0.000    0.000    0.000    0.000
 topology_set_atm_mass                1  4.0    0.000    0.000    0.000    0.000
 release_fast_vec_access            324 15.9    0.000    0.000    0.000    0.000
 dbcsr_filter_anytype               190 10.4    0.000    0.000    0.000    0.000
 topology_coordinate_pack_4           2  5.0    0.000    0.000    0.000    0.000
 mp_allgatherv_lv                     1 15.0    0.000    0.000    0.000    0.000
 calculate_ecore_self                14  5.9    0.000    0.000    0.000    0.000
 force_field_pack_shell               1  6.0    0.000    0.000    0.000    0.000
 balance_global_list                 14 12.9    0.000    0.000    0.000    0.000
 temperature_control                  6  3.0    0.000    0.000    0.000    0.000
 qs_scf_post_charges                  7  6.9    0.000    0.000    0.000    0.000
 external_read_density                7  6.9    0.000    0.000    0.000    0.000
 -------------------------------------------------------------------------------

 The number of warnings for this run is : 7
 
 -------------------------------------------------------------------------------
  **** **** ******  **  PROGRAM ENDED AT                 2021-12-10 15:43:23.902
 ***** ** ***  *** **   PROGRAM RAN ON                                 nid006375
 **    ****   ******    PROGRAM RAN BY                                     hjbio
 ***** **    ** ** **   PROGRAM PROCESS ID                                177601
  **** **  *******  **  PROGRAM STOPPED IN /mnt/lustre/a2fs-work1/work/d118/d118
                                           /hjbio/CP2K/qmmm-benchmarking/CPU/cp2
                                           kMD/ClC-253-B3LYP/6STEPS/1NODES/128CP
                                           N/8THREADS
