 DBCSR| CPU Multiplication driver                                           BLAS
 DBCSR| Multrec recursion limit                                              512
 DBCSR| Multiplication stack size                                           1000
 DBCSR| Maximum elements for images                                    UNLIMITED
 DBCSR| Multiplicative factor virtual images                                   1
 DBCSR| Use multiplication densification                                       T
 DBCSR| Multiplication size stacks                                             3
 DBCSR| Use memory pool for CPU allocation                                     F
 DBCSR| Number of 3D layers                                               SINGLE
 DBCSR| Use MPI memory allocation                                              F
 DBCSR| Use RMA algorithm                                                      F
 DBCSR| Use Communication thread                                               T
 DBCSR| Communication thread load                                             83
 DBCSR| MPI: My node id                                                        0
 DBCSR| MPI: Number of nodes                                                 128
 DBCSR| OMP: Current number of threads                                         2
 DBCSR| OMP: Max number of threads                                             2
 DBCSR| Split modifier for TAS multiplication algorithm                  1.0E+00


  **** **** ******  **  PROGRAM STARTED AT               2021-09-01 11:26:51.596
 ***** ** ***  *** **   PROGRAM STARTED ON                             nid001650
 **    ****   ******    PROGRAM STARTED BY                                 hjbio
 ***** **    ** ** **   PROGRAM PROCESS ID                                172159
  **** **  *******  **  PROGRAM STARTED IN /lus/cls01095/work/d118/d118/hjbio/qm
                                           mm-benchmarking/archer2/CPU/cp2kMD/CB
                                           D_PHY-PBE0/6STEPS/2NODES/128CPN/2THRE
                                           ADS

 CP2K| version string:                                          CP2K version 8.2
 CP2K| source code revision number:                                  git:310b7ab
 CP2K| cp2kflags: omp libint fftw3 libxc elpa parallel mpi3 scalapack plumed2   
 CP2K| is freely available from                            https://www.cp2k.org/
 CP2K| Program compiled at                          Thu 10 Jun 17:43:51 BST 2021
 CP2K| Program compiled on                                                 uan01
 CP2K| Program compiled for                                              ARCHER2
 CP2K| Data directory path              /work/d118/d118/hjbio/CP2K/cp2k-8.2/data
 CP2K| Input file name                                          CBD_PHY-cp2k.inp

 GLOBAL| Force Environment number                                              1
 GLOBAL| Basis set file name                                           HFX_BASIS
 GLOBAL| Potential file name                                           POTENTIAL
 GLOBAL| MM Potential file name                                     MM_POTENTIAL
 GLOBAL| Coordinate file name                                        CBD_PHY.pdb
 GLOBAL| Method name                                                        CP2K
 GLOBAL| Project name                                               CBD_PHY-PBE0
 GLOBAL| Run type                                                             MD
 GLOBAL| FFT library                                                       FFTW3
 GLOBAL| Diagonalization library                                            ELPA
 GLOBAL| Minimum number of eigenvectors for ELPA usage                        16
 GLOBAL| Orthonormality check for eigenvectors                          DISABLED
 GLOBAL| Matrix multiplication library                                    SCALAP
 GLOBAL| All-to-all communication in single precision                          F
 GLOBAL| FFTs using library dependent lengths                                  F
 GLOBAL| Grid backend                                                       AUTO
 GLOBAL| Global print level                                                  LOW
 GLOBAL| MPI I/O enabled                                                       T
 GLOBAL| Total number of message passing processes                           128
 GLOBAL| Number of threads for this process                                    2
 GLOBAL| This output is from process                                           0
 GLOBAL| CPU model name                          AMD EPYC 7742 64-Core Processor
 GLOBAL| CPUID                                                              1002

 MEMORY| system memory details [Kb]
 MEMORY|                        rank 0           min           max       average
 MEMORY| MemTotal            263568576     263568576     263568576     263568576
 MEMORY| MemFree             240090976     239355492     240090976     239723234
 MEMORY| Buffers                239248        199904        239248        219576
 MEMORY| Cached                8506776       8085736       8506776       8296256
 MEMORY| Slab                  2444608       2444608       2599040       2521824
 MEMORY| SReclaimable           215344        215344        252492        233918
 MEMORY| MemLikelyFree       249052344     247893624     249052344     248472984



                      ************* ******** ***********   
                     ************* **********************  
                     ****     **** ****      ***********   
                     ******** ****  *******     ****       
                     *******  ****   *******   ****        
                     ****     ****       ****  ****        
                     ****     **** **********  ****        
                      ****     **** ********    ****       
                     FRONTIERS IN SIMULATION TECHNOLOGY    
                                                           
                        C.J. Mundy, S. Balasubramanian,    
                     Ken Bagchi, J. Hutter, Ari Seitsonen  
                      IFW Kuo, T. Laino, J. VandeVondele   
                                 Version 1.0               

                                                           


 EWALD| Summation is done by:                                               SPME
 EWALD| Alpha parameter [       ANGSTROM^-1]                              0.4000
 EWALD| Real Space Cutoff [          ANGSTROM]                            8.4348
 EWALD| G-space max. Miller index                         80        80        80
 EWALD| Spline interpolation order                                             6

 FORCEFIELD| WARNING: A non Critical ForceField parameter is missing! CP2K GOES!
 FORCEFIELD| Non critical parameters are:Urey-Bradley,Torsions,Impropers, Opbends and 1-4
 FORCEFIELD| All missing parameters will not contribute to the potential energy!
 FORCEFIELD| Activate the print key FF_INFO to have a list of missing parameters

 CHARGE_INFO| Total Charge of the Classical System:                    -0.825808

 SPLINE_INFO| Generating 101926 splines for NONBONDED14 interactions 
              Due to 451 different atomic kinds
  ...10192  ...20384  ...30576  ...40768  ...50960  ...61152  ...71344  ...81536  ...91728  ...101920
 SPLINE_INFO| Number of unique splines computed:            301
 SPLINE_INFO| Done

 SPLINE_INFO| Generating 101926 splines for NONBONDED interactions 
              Due to 451 different atomic kinds
  ...10192  ...20384  ...30576  ...40768  ...50960  ...61152  ...71344  ...81536  ...91728  ...101920
 SPLINE_INFO| Number of unique splines computed:            301
 SPLINE_INFO| Done

 *******************************************************************************
 *******************************************************************************
 **                                                                           **
 **     #####                         ##              ##                      **
 **    ##   ##            ##          ##              ##                      **
 **   ##     ##                       ##            ######                    **
 **   ##     ##  ##   ##  ##   #####  ##  ##   ####   ##    #####    #####    **
 **   ##     ##  ##   ##  ##  ##      ## ##   ##      ##   ##   ##  ##   ##   **
 **   ##  ## ##  ##   ##  ##  ##      ####     ###    ##   ######   ######    **
 **    ##  ###   ##   ##  ##  ##      ## ##      ##   ##   ##       ##        **
 **     #######   #####   ##   #####  ##  ##  ####    ##    #####   ##        **
 **           ##                                                    ##        **
 **                                                                           **
 **                                                ... make the atoms dance   **
 **                                                                           **
 **            Copyright (C) by CP2K developers group (2000-2021)             **
 **                      J. Chem. Phys. 152, 194103 (2020)                    **
 **                                                                           **
 *******************************************************************************


 TOTAL NUMBERS AND MAXIMUM NUMBERS

  Total number of            - Atomic kinds:                                   5
                             - Atoms:                                         68
                             - Shell sets:                                   340
                             - Shells:                                       445
                             - Primitive Cartesian functions:                476
                             - Cartesian basis functions:                   1137
                             - Spherical basis functions:                   1067

  Maximum angular momentum of- Orbital basis functions:                        2
                             - Local part of the GTH pseudopotential:          2
                             - Non-local part of the GTH pseudopotential:      0


 SCF PARAMETERS         Density guess:                                   RESTART
                        --------------------------------------------------------
                        max_scf:                                              30
                        max_scf_history:                                       0
                        max_diis:                                              4
                        --------------------------------------------------------
                        eps_scf:                                        1.00E-06
                        eps_scf_history:                                0.00E+00
                        eps_diis:                                       1.00E-01
                        eps_eigval:                                     1.00E-05
                        --------------------------------------------------------
                        level_shift [a.u.]:                                 0.00
                        --------------------------------------------------------
                        Outer loop SCF in use 
                        No variables optimised in outer loop
                        eps_scf                                         1.00E-06
                        max_scf                                               20
                        No outer loop optimization
                        step_size                                       5.00E-01

 *******************************************************************************
 *******************************************************************************
 **                                                                           **
 **             #######  ##     ## ##     ## ##     ##                        **
 **            ##     ## ###   ### ###   ### ###   ###                        **
 **            ##     ## #### #### #### #### #### ####                        **
 **            ##     ## ## ### ## ## ### ## ## ### ##                        **
 **            ##  ## ## ##     ## ##     ## ##     ##                        **
 **            ##    ##  ##     ## ##     ## ##     ##  T.Laino and F.Mohamed **
 **             ##### ## ##     ## ##     ## ##     ##  2005 - 2015           **
 **                                                                           **
 **                                                     Calculation Started.. **
 *******************************************************************************
 *******************************************************************************

 MD_PAR| Molecular dynamics protocol (MD input parameters)
 MD_PAR| Ensemble type                                                       NVE
 MD_PAR| Number of time steps                                                  6
 MD_PAR| Time step [fs]                                                 1.000000
 MD_PAR| Temperature [K]                                              300.000000
 MD_PAR| Temperature tolerance [K]                                      0.000000
 MD_PAR| Print MD information every                                    1 step(s)
 MD_PAR| File type   Print frequency [steps]                          File names
 MD_PAR| Coordinates          1                           CBD_PHY-PBE0-pos-1.xyz
 MD_PAR| Velocities           1                           CBD_PHY-PBE0-vel-1.xyz
 MD_PAR| Energies             1                              CBD_PHY-PBE0-1.ener
 MD_PAR| Dump                20                           CBD_PHY-PBE0-1.restart

 ROT| Rotational analysis information
 ROT| Principal axes and moments of inertia [a.u.]
 ROT|                           1                   2                   3
 ROT| Eigenvalues      1.56283164001E+13   1.56407408488E+13   1.56663418804E+13
 ROT|      x              0.901637047331     -0.018153263569      0.432112362589
 ROT|      y              0.323714777231      0.690893927917     -0.646431994388
 ROT|      z             -0.286808957117      0.722728191915      0.628812040859
 ROT| Number of rotovibrational vectors                                        6

 DOF| Calculation of degrees of freedom
 DOF| Number of atoms                                                     167923
 DOF| Number of intramolecular constraints                                     0
 DOF| Number of intermolecular constraints                                     0
 DOF| Invariants (translations + rotations)                                    3
 DOF| Degrees of freedom                                                  503766

 DOF| Restraints information
 DOF| Number of intramolecular restraints                                      0
 DOF| Number of intermolecular restraints                                      0

 MD_VEL| Velocities initialization
 MD_VEL| Initial temperature [K]                                      300.000000
 MD_VEL| COM velocity            -0.0000000000     0.0000000000     0.0000000000

  Translating the system in order to center the QM fragment in the QM box.

 Number of electrons:                                                        180
 Number of occupied orbitals:                                                 90
 Number of molecular orbitals:                                                90

 Number of orbital functions:                                               1067
 Number of independent orbital functions:                                   1067

 Extrapolation method: initial_guess


 SCF WAVEFUNCTION OPTIMIZATION

  ----------------------------------- OT ---------------------------------------
  Minimizer      : DIIS                : direct inversion
                                         in the iterative subspace
                                         using   7 DIIS vectors
                                         safer DIIS on
  Preconditioner : FULL_ALL            : diagonalization, state selective
  Precond_solver : DEFAULT
  stepsize       :    0.15000000                  energy_gap     :    0.08000000
  eps_taylor     :   0.10000E-15                  max_taylor     :             4
  ----------------------------------- OT ---------------------------------------

  Step     Update method      Time    Convergence         Total energy    Change
  ------------------------------------------------------------------------------
  Decoupling Energy:                                               0.0370647021
  Recoupling Energy:                                              -0.0063741479
     1 OT DIIS     0.15E+00    7.5     0.00129057      -255.9257316521 -2.56E+02
  Decoupling Energy:                                               0.0370576004
  Recoupling Energy:                                              -0.0063740314
     2 OT DIIS     0.15E+00    1.1     0.00057761      -255.9419521977 -1.62E-02
  Decoupling Energy:                                               0.0369596417
  Recoupling Energy:                                              -0.0063730135
     3 OT DIIS     0.15E+00    1.1     0.00038348      -255.9451217318 -3.17E-03
  Decoupling Energy:                                               0.0369795470
  Recoupling Energy:                                              -0.0063732416
     4 OT DIIS     0.15E+00    1.1     0.00009866      -255.9458275768 -7.06E-04
  Decoupling Energy:                                               0.0369716948
  Recoupling Energy:                                              -0.0063731487
     5 OT DIIS     0.15E+00    1.1     0.00003992      -255.9458779686 -5.04E-05
  Decoupling Energy:                                               0.0369737640
  Recoupling Energy:                                              -0.0063731649
     6 OT DIIS     0.15E+00    1.1     0.00001793      -255.9458894170 -1.14E-05
  Decoupling Energy:                                               0.0369741808
  Recoupling Energy:                                              -0.0063731680
     7 OT DIIS     0.15E+00    1.1     0.00000621      -255.9458922938 -2.88E-06
  Decoupling Energy:                                               0.0369727127
  Recoupling Energy:                                              -0.0063731518
     8 OT DIIS     0.15E+00    1.1     0.00000242      -255.9458926328 -3.39E-07
  Decoupling Energy:                                               0.0369731061
  Recoupling Energy:                                              -0.0063731556
     9 OT DIIS     0.15E+00    1.1     0.00000111      -255.9458926822 -4.94E-08
  Decoupling Energy:                                               0.0369728228
  Recoupling Energy:                                              -0.0063731526
    10 OT DIIS     0.15E+00    1.1     0.00000048      -255.9458926924 -1.02E-08

  *** SCF run converged in    10 steps ***


  Electronic density on regular grids:       -179.9999999999        0.0000000001
  Core density on regular grids:              180.9999999999       -0.0000000001
  Total charge density on r-space grids:        1.0000000000
  Total charge density g-space grids:           1.0000000000

  Overlap energy of the core charge distribution:               0.00001951532734
  Self energy of the core charge distribution:               -615.71576003586028
  Core Hamiltonian energy:                                    191.01363220817493
  Hartree energy:                                             248.20663869015874
  Exchange-correlation energy:                                -61.38430761263318
  Hartree-Fock Exchange energy:                               -18.10821018492819
  QM/MM Electrostatic energy:                                   0.04209472735318

  Total energy:                                              -255.94589269240740

  outer SCF iter =    1 RMS gradient =   0.48E-06 energy =       -255.9458926924
  outer SCF loop converged in   1 iterations or   10 steps

  Decoupling Energy:                                               0.0369728028
  Recoupling Energy:                                              -0.0063731523

 ENERGY| Total FORCE_EVAL ( QMMM ) energy [a.u.]:          -1088.110859624467594

 MD_INI| MD initialization
 MD_INI| Potential energy [hartree]                          -0.108811085962E+04
 MD_INI| Total kinetic energy [hartree]                       0.239300084734E+03
 MD_INI| QM kinetic energy [hartree]                          0.106639360339E+00
 MD_INI| Total temperature [K]                                        300.000000
 MD_INI| QM temperature [K]                                           330.137318
 MD_INI| Cell volume [bohr^3]                                 1.137316355424E+07
 MD_INI| Cell volume [ang^3]                                  1.685328937712E+06
 MD_INI| Cell lengths [bohr]      2.24884969E+02  2.24884969E+02  2.24884969E+02
 MD_INI| Cell lengths [ang]       1.19004000E+02  1.19004000E+02  1.19004000E+02
 MD_INI| Cell angles [deg]        9.00000000E+01  9.00000000E+01  9.00000000E+01

  Translating the system in order to center the QM fragment in the QM box.

 Number of electrons:                                                        180
 Number of occupied orbitals:                                                 90
 Number of molecular orbitals:                                                90

 Number of orbital functions:                                               1067
 Number of independent orbital functions:                                   1067

 Extrapolation method: ASPC


 SCF WAVEFUNCTION OPTIMIZATION

  ----------------------------------- OT ---------------------------------------
  Minimizer      : DIIS                : direct inversion
                                         in the iterative subspace
                                         using   7 DIIS vectors
                                         safer DIIS on
  Preconditioner : FULL_ALL            : diagonalization, state selective
  Precond_solver : DEFAULT
  stepsize       :    0.15000000                  energy_gap     :    0.08000000
  eps_taylor     :   0.10000E-15                  max_taylor     :             4
  ----------------------------------- OT ---------------------------------------

  Step     Update method      Time    Convergence         Total energy    Change
  ------------------------------------------------------------------------------
  Decoupling Energy:                                               0.0370014667
  Recoupling Energy:                                              -0.0063734172
     1 OT DIIS     0.15E+00    4.6     0.00075899      -255.7182133762 -2.56E+02
  Decoupling Energy:                                               0.0370082386
  Recoupling Energy:                                              -0.0063735355
     2 OT DIIS     0.15E+00    1.1     0.00032685      -255.7237312551 -5.52E-03
  Decoupling Energy:                                               0.0370087411
  Recoupling Energy:                                              -0.0063735590
     3 OT DIIS     0.15E+00    1.1     0.00019068      -255.7247685859 -1.04E-03
  Decoupling Energy:                                               0.0370199883
  Recoupling Energy:                                              -0.0063736817
     4 OT DIIS     0.15E+00    1.1     0.00006054      -255.7249610230 -1.92E-04
  Decoupling Energy:                                               0.0370216763
  Recoupling Energy:                                              -0.0063737045
     5 OT DIIS     0.15E+00    1.1     0.00001954      -255.7249775877 -1.66E-05
  Decoupling Energy:                                               0.0370210005
  Recoupling Energy:                                              -0.0063736984
     6 OT DIIS     0.15E+00    1.1     0.00000817      -255.7249798461 -2.26E-06
  Decoupling Energy:                                               0.0370221930
  Recoupling Energy:                                              -0.0063737124
     7 OT DIIS     0.15E+00    1.1     0.00000308      -255.7249803081 -4.62E-07
  Decoupling Energy:                                               0.0370222382
  Recoupling Energy:                                              -0.0063737132
     8 OT DIIS     0.15E+00    1.1     0.00000136      -255.7249803854 -7.72E-08
  Decoupling Energy:                                               0.0370224659
  Recoupling Energy:                                              -0.0063737159
     9 OT DIIS     0.15E+00    1.1     0.00000058      -255.7249804011 -1.57E-08

  *** SCF run converged in     9 steps ***


  Electronic density on regular grids:       -180.0000000000        0.0000000000
  Core density on regular grids:              180.9999999999       -0.0000000001
  Total charge density on r-space grids:        0.9999999999
  Total charge density g-space grids:           0.9999999999

  Overlap energy of the core charge distribution:               0.00002422739645
  Self energy of the core charge distribution:               -615.71576003586028
  Core Hamiltonian energy:                                    191.21094993258970
  Hartree energy:                                             248.07774814329434
  Exchange-correlation energy:                                -61.42683492343895
  Hartree-Fock Exchange energy:                               -18.12283148364406
  QM/MM Electrostatic energy:                                   0.25172373855327

  Total energy:                                              -255.72498040110952

  outer SCF iter =    1 RMS gradient =   0.58E-06 energy =       -255.7249804011
  outer SCF loop converged in   1 iterations or    9 steps

  Decoupling Energy:                                               0.0370224945
  Recoupling Energy:                                              -0.0063737164

 ENERGY| Total FORCE_EVAL ( QMMM ) energy [a.u.]:          -1059.962356570721340

 MD| ***************************************************************************
 MD| Step number                                                               1
 MD| Time [fs]                                                          1.000000
 MD| Conserved quantity [hartree]                            -0.841461427198E+03
 MD| ---------------------------------------------------------------------------
 MD|                                          Instantaneous             Averages
 MD| CPU time per MD step [s]                    101.107759           101.107759
 MD| Energy drift per atom [K]           0.138202490417E+02   0.000000000000E+00
 MD| Potential energy [hartree]         -0.105996235657E+04  -0.105996235657E+04
 MD| Total kinetic energy [hartree]      0.218500929372E+03   0.218500929372E+03
 MD| QM kinetic energy [hartree]         0.121347247474E+00   0.121347247474E+00
 MD| Total temperature [K]                       273.925013           273.925013
 MD| QM temperature [K]                          375.670435           375.670435
 MD| ***************************************************************************

  Translating the system in order to center the QM fragment in the QM box.

 Number of electrons:                                                        180
 Number of occupied orbitals:                                                 90
 Number of molecular orbitals:                                                90

 Number of orbital functions:                                               1067
 Number of independent orbital functions:                                   1067

 Extrapolation method: ASPC


 SCF WAVEFUNCTION OPTIMIZATION

  ----------------------------------- OT ---------------------------------------
  Minimizer      : DIIS                : direct inversion
                                         in the iterative subspace
                                         using   7 DIIS vectors
                                         safer DIIS on
  Preconditioner : FULL_ALL            : diagonalization, state selective
  Precond_solver : DEFAULT
  stepsize       :    0.15000000                  energy_gap     :    0.08000000
  eps_taylor     :   0.10000E-15                  max_taylor     :             4
  ----------------------------------- OT ---------------------------------------

  Step     Update method      Time    Convergence         Total energy    Change
  ------------------------------------------------------------------------------
  Decoupling Energy:                                               0.0370781904
  Recoupling Energy:                                              -0.0063743357
     1 OT DIIS     0.15E+00    4.5     0.00029256      -255.3622518919 -2.55E+02
  Decoupling Energy:                                               0.0370714462
  Recoupling Energy:                                              -0.0063742686
     2 OT DIIS     0.15E+00    1.1     0.00012380      -255.3630876972 -8.36E-04
  Decoupling Energy:                                               0.0370747179
  Recoupling Energy:                                              -0.0063743003
     3 OT DIIS     0.15E+00    1.1     0.00005679      -255.3632550253 -1.67E-04
  Decoupling Energy:                                               0.0370720753
  Recoupling Energy:                                              -0.0063742776
     4 OT DIIS     0.15E+00    1.1     0.00001757      -255.3632738174 -1.88E-05
  Decoupling Energy:                                               0.0370725461
  Recoupling Energy:                                              -0.0063742816
     5 OT DIIS     0.15E+00    1.1     0.00000682      -255.3632753443 -1.53E-06
  Decoupling Energy:                                               0.0370729631
  Recoupling Energy:                                              -0.0063742866
     6 OT DIIS     0.15E+00    1.1     0.00000313      -255.3632756019 -2.58E-07
  Decoupling Energy:                                               0.0370729479
  Recoupling Energy:                                              -0.0063742865
     7 OT DIIS     0.15E+00    1.1     0.00000105      -255.3632756629 -6.10E-08
  Decoupling Energy:                                               0.0370730058
  Recoupling Energy:                                              -0.0063742872
     8 OT DIIS     0.15E+00    1.1     0.00000048      -255.3632756731 -1.02E-08

  *** SCF run converged in     8 steps ***


  Electronic density on regular grids:       -180.0000000000       -0.0000000000
  Core density on regular grids:              180.9999999999       -0.0000000001
  Total charge density on r-space grids:        0.9999999998
  Total charge density g-space grids:           0.9999999998

  Overlap energy of the core charge distribution:               0.00005088939869
  Self energy of the core charge distribution:               -615.71576003586028
  Core Hamiltonian energy:                                    191.44418925372486
  Hartree energy:                                             247.94136417628101
  Exchange-correlation energy:                                -61.47332489834479
  Hartree-Fock Exchange energy:                               -18.13880635899954
  QM/MM Electrostatic energy:                                   0.57901130071568

  Total energy:                                              -255.36327567308436

  outer SCF iter =    1 RMS gradient =   0.48E-06 energy =       -255.3632756731
  outer SCF loop converged in   1 iterations or    8 steps

  Decoupling Energy:                                               0.0370730225
  Recoupling Energy:                                              -0.0063742875

 ENERGY| Total FORCE_EVAL ( QMMM ) energy [a.u.]:          -1061.235329039939415

 MD| ***************************************************************************
 MD| Step number                                                               2
 MD| Time [fs]                                                          2.000000
 MD| Conserved quantity [hartree]                            -0.842817774716E+03
 MD| ---------------------------------------------------------------------------
 MD|                                          Instantaneous             Averages
 MD| CPU time per MD step [s]                     46.068154            73.587956
 MD| Energy drift per atom [K]           0.112696743155E+02   0.563483715777E+01
 MD| Potential energy [hartree]         -0.106123532904E+04  -0.106059884281E+04
 MD| Total kinetic energy [hartree]      0.218417554324E+03   0.218459241848E+03
 MD| QM kinetic energy [hartree]         0.111577800704E+00   0.116462524089E+00
 MD| Total temperature [K]                       273.820489           273.872751
 MD| QM temperature [K]                          345.425890           360.548162
 MD| ***************************************************************************

  Translating the system in order to center the QM fragment in the QM box.

 Number of electrons:                                                        180
 Number of occupied orbitals:                                                 90
 Number of molecular orbitals:                                                90

 Number of orbital functions:                                               1067
 Number of independent orbital functions:                                   1067

 Extrapolation method: ASPC


 SCF WAVEFUNCTION OPTIMIZATION

  ----------------------------------- OT ---------------------------------------
  Minimizer      : DIIS                : direct inversion
                                         in the iterative subspace
                                         using   7 DIIS vectors
                                         safer DIIS on
  Preconditioner : FULL_ALL            : diagonalization, state selective
  Precond_solver : DEFAULT
  stepsize       :    0.15000000                  energy_gap     :    0.08000000
  eps_taylor     :   0.10000E-15                  max_taylor     :             4
  ----------------------------------- OT ---------------------------------------

  Step     Update method      Time    Convergence         Total energy    Change
  ------------------------------------------------------------------------------
  Decoupling Energy:                                               0.0371231263
  Recoupling Energy:                                              -0.0063748338
     1 OT DIIS     0.15E+00    4.5     0.00057317      -254.8840252944 -2.55E+02
  Decoupling Energy:                                               0.0371264106
  Recoupling Energy:                                              -0.0063748791
     2 OT DIIS     0.15E+00    1.1     0.00022569      -254.8871517316 -3.13E-03
  Decoupling Energy:                                               0.0371270512
  Recoupling Energy:                                              -0.0063748842
     3 OT DIIS     0.15E+00    1.1     0.00008230      -254.8877072114 -5.55E-04
  Decoupling Energy:                                               0.0371223440
  Recoupling Energy:                                              -0.0063748375
     4 OT DIIS     0.15E+00    1.1     0.00002757      -254.8877574394 -5.02E-05
  Decoupling Energy:                                               0.0371233117
  Recoupling Energy:                                              -0.0063748478
     5 OT DIIS     0.15E+00    1.1     0.00001040      -254.8877612480 -3.81E-06
  Decoupling Energy:                                               0.0371231621
  Recoupling Energy:                                              -0.0063748451
     6 OT DIIS     0.15E+00    1.1     0.00000441      -254.8877618353 -5.87E-07
  Decoupling Energy:                                               0.0371230817
  Recoupling Energy:                                              -0.0063748446
     7 OT DIIS     0.15E+00    1.1     0.00000136      -254.8877619262 -9.09E-08
  Decoupling Energy:                                               0.0371230840
  Recoupling Energy:                                              -0.0063748447
     8 OT DIIS     0.15E+00    1.1     0.00000059      -254.8877619371 -1.09E-08

  *** SCF run converged in     8 steps ***


  Electronic density on regular grids:       -180.0000000003       -0.0000000003
  Core density on regular grids:              180.9999999999       -0.0000000001
  Total charge density on r-space grids:        0.9999999996
  Total charge density g-space grids:           0.9999999996

  Overlap energy of the core charge distribution:               0.00005124508148
  Self energy of the core charge distribution:               -615.71576003586028
  Core Hamiltonian energy:                                    191.49125837990172
  Hartree energy:                                             247.90727947039738
  Exchange-correlation energy:                                -61.48094568629487
  Hartree-Fock Exchange energy:                               -18.14140131662484
  QM/MM Electrostatic energy:                                   1.05175600632988

  Total energy:                                              -254.88776193706946

  outer SCF iter =    1 RMS gradient =   0.59E-06 energy =       -254.8877619371
  outer SCF loop converged in   1 iterations or    8 steps

  Decoupling Energy:                                               0.0371230840
  Recoupling Energy:                                              -0.0063748446

 ENERGY| Total FORCE_EVAL ( QMMM ) energy [a.u.]:          -1082.045340312407234

 MD| ***************************************************************************
 MD| Step number                                                               3
 MD| Time [fs]                                                          3.000000
 MD| Conserved quantity [hartree]                            -0.846392350499E+03
 MD| ---------------------------------------------------------------------------
 MD|                                          Instantaneous             Averages
 MD| CPU time per MD step [s]                     46.219595            64.465169
 MD| Energy drift per atom [K]           0.454778148818E+01   0.527248526791E+01
 MD| Potential energy [hartree]         -0.108204534031E+04  -0.106774767531E+04
 MD| Total kinetic energy [hartree]      0.235652989814E+03   0.224190491170E+03
 MD| QM kinetic energy [hartree]         0.117355607033E+00   0.116760218404E+00
 MD| Total temperature [K]                       295.427797           281.057767
 MD| QM temperature [K]                          363.312995           361.469773
 MD| ***************************************************************************

  Translating the system in order to center the QM fragment in the QM box.

 Number of electrons:                                                        180
 Number of occupied orbitals:                                                 90
 Number of molecular orbitals:                                                90

 Number of orbital functions:                                               1067
 Number of independent orbital functions:                                   1067

 Extrapolation method: ASPC


 SCF WAVEFUNCTION OPTIMIZATION

  ----------------------------------- OT ---------------------------------------
  Minimizer      : DIIS                : direct inversion
                                         in the iterative subspace
                                         using   7 DIIS vectors
                                         safer DIIS on
  Preconditioner : FULL_ALL            : diagonalization, state selective
  Precond_solver : DEFAULT
  stepsize       :    0.15000000                  energy_gap     :    0.08000000
  eps_taylor     :   0.10000E-15                  max_taylor     :             4
  ----------------------------------- OT ---------------------------------------

  Step     Update method      Time    Convergence         Total energy    Change
  ------------------------------------------------------------------------------
  Decoupling Energy:                                               0.0371655037
  Recoupling Energy:                                              -0.0063753287
     1 OT DIIS     0.15E+00    4.5     0.00026644      -254.3373030507 -2.54E+02
  Decoupling Energy:                                               0.0371742013
  Recoupling Energy:                                              -0.0063754094
     2 OT DIIS     0.15E+00    1.1     0.00010683      -254.3379926544 -6.90E-04
  Decoupling Energy:                                               0.0371692161
  Recoupling Energy:                                              -0.0063753580
     3 OT DIIS     0.15E+00    1.1     0.00003990      -254.3381206026 -1.28E-04
  Decoupling Energy:                                               0.0371714450
  Recoupling Energy:                                              -0.0063753810
     4 OT DIIS     0.15E+00    1.1     0.00001256      -254.3381304666 -9.86E-06
  Decoupling Energy:                                               0.0371702689
  Recoupling Energy:                                              -0.0063753694
     5 OT DIIS     0.15E+00    1.1     0.00000529      -254.3381312995 -8.33E-07
  Decoupling Energy:                                               0.0371705324
  Recoupling Energy:                                              -0.0063753714
     6 OT DIIS     0.15E+00    1.1     0.00000187      -254.3381314335 -1.34E-07
  Decoupling Energy:                                               0.0371705416
  Recoupling Energy:                                              -0.0063753718
     7 OT DIIS     0.15E+00    1.1     0.00000064      -254.3381314518 -1.83E-08

  *** SCF run converged in     7 steps ***


  Electronic density on regular grids:       -179.9999999999        0.0000000001
  Core density on regular grids:              180.9999999999       -0.0000000001
  Total charge density on r-space grids:        1.0000000000
  Total charge density g-space grids:           1.0000000000

  Overlap energy of the core charge distribution:               0.00002358476820
  Self energy of the core charge distribution:               -615.71576003586028
  Core Hamiltonian energy:                                    191.34734273859218
  Hartree energy:                                             247.97608237511454
  Exchange-correlation energy:                                -61.44937173701540
  Hartree-Fock Exchange energy:                               -18.13041924574851
  QM/MM Electrostatic energy:                                   1.63397086833463

  Total energy:                                              -254.33813145181469

  outer SCF iter =    1 RMS gradient =   0.64E-06 energy =       -254.3381314518
  outer SCF loop converged in   1 iterations or    7 steps

  Decoupling Energy:                                               0.0371704734
  Recoupling Energy:                                              -0.0063753710

 ENERGY| Total FORCE_EVAL ( QMMM ) energy [a.u.]:          -1079.714053178041468

 MD| ***************************************************************************
 MD| Step number                                                               4
 MD| Time [fs]                                                          4.000000
 MD| Conserved quantity [hartree]                            -0.842113597220E+03
 MD| ---------------------------------------------------------------------------
 MD|                                          Instantaneous             Averages
 MD| CPU time per MD step [s]                     44.837290            59.558200
 MD| Energy drift per atom [K]           0.125938610002E+02   0.710282920099E+01
 MD| Potential energy [hartree]         -0.107971405318E+04  -0.107073926978E+04
 MD| Total kinetic energy [hartree]      0.237600455958E+03   0.227542982367E+03
 MD| QM kinetic energy [hartree]         0.148327850161E+00   0.124652126343E+00
 MD| Total temperature [K]                       297.869250           285.260637
 MD| QM temperature [K]                          459.197791           385.901778
 MD| ***************************************************************************

  Translating the system in order to center the QM fragment in the QM box.

 Number of electrons:                                                        180
 Number of occupied orbitals:                                                 90
 Number of molecular orbitals:                                                90

 Number of orbital functions:                                               1067
 Number of independent orbital functions:                                   1067

 Extrapolation method: ASPC


 SCF WAVEFUNCTION OPTIMIZATION

  ----------------------------------- OT ---------------------------------------
  Minimizer      : DIIS                : direct inversion
                                         in the iterative subspace
                                         using   7 DIIS vectors
                                         safer DIIS on
  Preconditioner : FULL_ALL            : diagonalization, state selective
  Precond_solver : DEFAULT
  stepsize       :    0.15000000                  energy_gap     :    0.08000000
  eps_taylor     :   0.10000E-15                  max_taylor     :             4
  ----------------------------------- OT ---------------------------------------

  Step     Update method      Time    Convergence         Total energy    Change
  ------------------------------------------------------------------------------
  Decoupling Energy:                                               0.0372102568
  Recoupling Energy:                                              -0.0063758453
     1 OT DIIS     0.15E+00    4.5     0.00032177      -253.7449288474 -2.54E+02
  Decoupling Energy:                                               0.0372072405
  Recoupling Energy:                                              -0.0063758023
     2 OT DIIS     0.15E+00    1.1     0.00013174      -253.7458490736 -9.20E-04
  Decoupling Energy:                                               0.0372093412
  Recoupling Energy:                                              -0.0063758212
     3 OT DIIS     0.15E+00    1.1     0.00006222      -253.7460083183 -1.59E-04
  Decoupling Energy:                                               0.0372088392
  Recoupling Energy:                                              -0.0063758157
     4 OT DIIS     0.15E+00    1.1     0.00002400      -253.7460394264 -3.11E-05
  Decoupling Energy:                                               0.0372096168
  Recoupling Energy:                                              -0.0063758219
     5 OT DIIS     0.15E+00    1.1     0.00000519      -253.7460418979 -2.47E-06
  Decoupling Energy:                                               0.0372093001
  Recoupling Energy:                                              -0.0063758193
     6 OT DIIS     0.15E+00    1.1     0.00000248      -253.7460420400 -1.42E-07
  Decoupling Energy:                                               0.0372093080
  Recoupling Energy:                                              -0.0063758192
     7 OT DIIS     0.15E+00    1.1     0.00000089      -253.7460420712 -3.12E-08

  *** SCF run converged in     7 steps ***


  Electronic density on regular grids:       -180.0000000000       -0.0000000000
  Core density on regular grids:              180.9999999999       -0.0000000001
  Total charge density on r-space grids:        0.9999999998
  Total charge density g-space grids:           0.9999999998

  Overlap energy of the core charge distribution:               0.00001841797269
  Self energy of the core charge distribution:               -615.71576003586028
  Core Hamiltonian energy:                                    191.22475028506085
  Hartree energy:                                             248.04794702844151
  Exchange-correlation energy:                                -61.41799247119526
  Hartree-Fock Exchange energy:                               -18.11952384974867
  QM/MM Electrostatic energy:                                   2.23451855411656

  Total energy:                                              -253.74604207121260

  outer SCF iter =    1 RMS gradient =   0.89E-06 energy =       -253.7460420712
  outer SCF loop converged in   1 iterations or    7 steps

  Decoupling Energy:                                               0.0372093333
  Recoupling Energy:                                              -0.0063758194

 ENERGY| Total FORCE_EVAL ( QMMM ) energy [a.u.]:          -1094.307011593824200

 MD| ***************************************************************************
 MD| Step number                                                               5
 MD| Time [fs]                                                          5.000000
 MD| Conserved quantity [hartree]                            -0.848389416475E+03
 MD| ---------------------------------------------------------------------------
 MD|                                          Instantaneous             Averages
 MD| CPU time per MD step [s]                     45.319365            56.710433
 MD| Energy drift per atom [K]           0.792353074493E+00   0.584073397569E+01
 MD| Potential energy [hartree]         -0.109430701159E+04  -0.107545281814E+04
 MD| Total kinetic energy [hartree]      0.245917595119E+03   0.231217904917E+03
 MD| QM kinetic energy [hartree]         0.157564932001E+00   0.131234687475E+00
 MD| Total temperature [K]                       308.296082           289.867726
 MD| QM temperature [K]                          487.794225           406.280267
 MD| ***************************************************************************

  Translating the system in order to center the QM fragment in the QM box.

 Number of electrons:                                                        180
 Number of occupied orbitals:                                                 90
 Number of molecular orbitals:                                                90

 Number of orbital functions:                                               1067
 Number of independent orbital functions:                                   1067

 Extrapolation method: ASPC


 SCF WAVEFUNCTION OPTIMIZATION

  ----------------------------------- OT ---------------------------------------
  Minimizer      : DIIS                : direct inversion
                                         in the iterative subspace
                                         using   7 DIIS vectors
                                         safer DIIS on
  Preconditioner : FULL_ALL            : diagonalization, state selective
  Precond_solver : DEFAULT
  stepsize       :    0.15000000                  energy_gap     :    0.08000000
  eps_taylor     :   0.10000E-15                  max_taylor     :             4
  ----------------------------------- OT ---------------------------------------

  Step     Update method      Time    Convergence         Total energy    Change
  ------------------------------------------------------------------------------
  Decoupling Energy:                                               0.0372436482
  Recoupling Energy:                                              -0.0063762132
     1 OT DIIS     0.15E+00    4.5     0.00048911      -253.1925218125 -2.53E+02
  Decoupling Energy:                                               0.0372421141
  Recoupling Energy:                                              -0.0063762286
     2 OT DIIS     0.15E+00    1.1     0.00019200      -253.1946662961 -2.14E-03
  Decoupling Energy:                                               0.0372395052
  Recoupling Energy:                                              -0.0063761931
     3 OT DIIS     0.15E+00    1.1     0.00008068      -253.1950229708 -3.57E-04
  Decoupling Energy:                                               0.0372399399
  Recoupling Energy:                                              -0.0063761996
     4 OT DIIS     0.15E+00    1.1     0.00002240      -253.1950818093 -5.88E-05
  Decoupling Energy:                                               0.0372387732
  Recoupling Energy:                                              -0.0063761867
     5 OT DIIS     0.15E+00    1.1     0.00000832      -253.1950843725 -2.56E-06
  Decoupling Energy:                                               0.0372394837
  Recoupling Energy:                                              -0.0063761928
     6 OT DIIS     0.15E+00    1.1     0.00000286      -253.1950847272 -3.55E-07
  Decoupling Energy:                                               0.0372392269
  Recoupling Energy:                                              -0.0063761905
     7 OT DIIS     0.15E+00    1.1     0.00000086      -253.1950847674 -4.02E-08

  *** SCF run converged in     7 steps ***


  Electronic density on regular grids:       -180.0000000000       -0.0000000000
  Core density on regular grids:              180.9999999999       -0.0000000001
  Total charge density on r-space grids:        0.9999999998
  Total charge density g-space grids:           0.9999999998

  Overlap energy of the core charge distribution:               0.00001843294464
  Self energy of the core charge distribution:               -615.71576003586028
  Core Hamiltonian energy:                                    191.21896795042653
  Hartree energy:                                             248.05851945344659
  Exchange-correlation energy:                                -61.40903125150304
  Hartree-Fock Exchange energy:                               -18.11645465014700
  QM/MM Electrostatic energy:                                   2.76865533333261

  Total energy:                                              -253.19508476735993

  outer SCF iter =    1 RMS gradient =   0.86E-06 energy =       -253.1950847674
  outer SCF loop converged in   1 iterations or    7 steps

  Decoupling Energy:                                               0.0372392175
  Recoupling Energy:                                              -0.0063761902

 ENERGY| Total FORCE_EVAL ( QMMM ) energy [a.u.]:          -1057.339965207647083

 MD| ***************************************************************************
 MD| Step number                                                               6
 MD| Time [fs]                                                          6.000000
 MD| Conserved quantity [hartree]                            -0.842900324312E+03
 MD| ---------------------------------------------------------------------------
 MD|                                          Instantaneous             Averages
 MD| CPU time per MD step [s]                     45.030579            54.763790
 MD| Energy drift per atom [K]           0.111144420377E+02   0.671968531935E+01
 MD| Potential energy [hartree]         -0.105733996521E+04  -0.107243400932E+04
 MD| Total kinetic energy [hartree]      0.214439640895E+03   0.228421527580E+03
 MD| QM kinetic energy [hartree]         0.141132561737E+00   0.132884333185E+00
 MD| Total temperature [K]                       268.833554           286.362031
 MD| QM temperature [K]                          436.922402           411.387289
 MD| ***************************************************************************

 -------------------------------------------------------------------------------
 -                                                                             -
 -                                DBCSR STATISTICS                             -
 -                                                                             -
 -------------------------------------------------------------------------------
 COUNTER                                    TOTAL       BLAS       SMM       ACC
 flops     9 x    26 x    26              2810808     100.0%      0.0%      0.0%
 flops    22 x    26 x    26              7287280     100.0%      0.0%      0.0%
 flops     9 x    32 x    32              8515584     100.0%      0.0%      0.0%
 flops    31 x    26 x    26             11735360     100.0%      0.0%      0.0%
 flops    26 x    26 x    26             13709280     100.0%      0.0%      0.0%
 flops    22 x    32 x    32             22077440     100.0%      0.0%      0.0%
 flops    31 x    26 x    32             28887040     100.0%      0.0%      0.0%
 flops    31 x    32 x    26             28887040     100.0%      0.0%      0.0%
 flops    80 x    26 x    26             30284800     100.0%      0.0%      0.0%
 flops    26 x    26 x    32             33745920     100.0%      0.0%      0.0%
 flops    26 x    32 x    26             33745920     100.0%      0.0%      0.0%
 flops    32 x    26 x    26             33745920     100.0%      0.0%      0.0%
 flops   106 x    26 x    26             40127360     100.0%      0.0%      0.0%
 flops    53 x    26 x    26             40127360     100.0%      0.0%      0.0%
 flops    31 x    26 x    75             45700200     100.0%      0.0%      0.0%
 flops    71 x    26 x    26             53755520     100.0%      0.0%      0.0%
 flops    31 x    26 x    71             57683808     100.0%      0.0%      0.0%
 flops    84 x    26 x    26             63598080     100.0%      0.0%      0.0%
 flops    26 x    26 x    75             70270200     100.0%      0.0%      0.0%
 flops    31 x    32 x    32             71106560     100.0%      0.0%      0.0%
 flops    80 x    26 x    32             74547200     100.0%      0.0%      0.0%
 flops    80 x    32 x    26             74547200     100.0%      0.0%      0.0%
 flops    32 x    32 x    26             83066880     100.0%      0.0%      0.0%
 flops    26 x    32 x    32             83066880     100.0%      0.0%      0.0%
 flops    32 x    26 x    32             83066880     100.0%      0.0%      0.0%
 flops    26 x    26 x    71             88696608     100.0%      0.0%      0.0%
 flops    53 x    32 x    26             98775040     100.0%      0.0%      0.0%
 flops   106 x    26 x    32             98775040     100.0%      0.0%      0.0%
 flops   106 x    32 x    26             98775040     100.0%      0.0%      0.0%
 flops    53 x    26 x    32             98775040     100.0%      0.0%      0.0%
 flops    31 x    32 x    75            112492800     100.0%      0.0%      0.0%
 flops    31 x    26 x    62            113336496     100.0%      0.0%      0.0%
 flops    80 x    26 x    75            117936000     100.0%      0.0%      0.0%
 flops    71 x    26 x    32            132321280     100.0%      0.0%      0.0%
 flops    71 x    32 x    26            132321280     100.0%      0.0%      0.0%
 flops    31 x    32 x    71            141990912     100.0%      0.0%      0.0%
 flops    80 x    26 x    71            148861440     100.0%      0.0%      0.0%
 flops   106 x    26 x    75            156265200     100.0%      0.0%      0.0%
 flops    53 x    26 x    75            156265200     100.0%      0.0%      0.0%
 flops    84 x    32 x    26            156549120     100.0%      0.0%      0.0%
 flops    84 x    26 x    32            156549120     100.0%      0.0%      0.0%
 flops    62 x    26 x    26            164295040     100.0%      0.0%      0.0%
 flops     9 x     9 x    26            165405240     100.0%      0.0%      0.0%
 flops    26 x    32 x    75            172972800     100.0%      0.0%      0.0%
 flops    32 x    26 x    75            172972800     100.0%      0.0%      0.0%
 flops    26 x    26 x    62            174270096     100.0%      0.0%      0.0%
 flops    80 x    32 x    32            183500800     100.0%      0.0%      0.0%
 flops   106 x    26 x    71            197241408     100.0%      0.0%      0.0%
 flops    53 x    26 x    71            197241408     100.0%      0.0%      0.0%
 flops    32 x    32 x    32            204472320     100.0%      0.0%      0.0%
 flops    71 x    26 x    75            209336400     100.0%      0.0%      0.0%
 flops    26 x    32 x    71            218330112     100.0%      0.0%      0.0%
 flops    32 x    26 x    71            218330112     100.0%      0.0%      0.0%
 flops    53 x    32 x    32            243138560     100.0%      0.0%      0.0%
 flops   106 x    32 x    32            243138560     100.0%      0.0%      0.0%
 flops    84 x    26 x    75            247665600     100.0%      0.0%      0.0%
 flops    71 x    26 x    71            264229056     100.0%      0.0%      0.0%
 flops    31 x    32 x    62            278982144     100.0%      0.0%      0.0%
 flops    80 x    32 x    75            290304000     100.0%      0.0%      0.0%
 flops    80 x    26 x    62            292481280     100.0%      0.0%      0.0%
 flops    84 x    26 x    71            312609024     100.0%      0.0%      0.0%
 flops    71 x    32 x    32            325713920     100.0%      0.0%      0.0%
 flops    80 x    32 x    71            366428160     100.0%      0.0%      0.0%
 flops    53 x    32 x    75            384652800     100.0%      0.0%      0.0%
 flops   106 x    32 x    75            384652800     100.0%      0.0%      0.0%
 flops    84 x    32 x    32            385351680     100.0%      0.0%      0.0%
 flops   106 x    26 x    62            387537696     100.0%      0.0%      0.0%
 flops    53 x    26 x    62            387537696     100.0%      0.0%      0.0%
 flops    62 x    26 x    32            404418560     100.0%      0.0%      0.0%
 flops    62 x    32 x    26            404418560     100.0%      0.0%      0.0%
 flops     9 x     9 x    32            407151360     100.0%      0.0%      0.0%
 flops    22 x     9 x    26            415855440     100.0%      0.0%      0.0%
 flops     9 x    22 x    26            416576160     100.0%      0.0%      0.0%
 flops    32 x    32 x    75            425779200     100.0%      0.0%      0.0%
 flops    26 x    32 x    62            428972544     100.0%      0.0%      0.0%
 flops    32 x    26 x    62            428972544     100.0%      0.0%      0.0%
 flops    53 x    32 x    71            485517312     100.0%      0.0%      0.0%
 flops   106 x    32 x    71            485517312     100.0%      0.0%      0.0%
 flops    71 x    32 x    75            515289600     100.0%      0.0%      0.0%
 flops    71 x    26 x    62            519154272     100.0%      0.0%      0.0%
 flops    32 x    32 x    71            537427968     100.0%      0.0%      0.0%
 flops    84 x    32 x    75            609638400     100.0%      0.0%      0.0%
 flops    84 x    26 x    62            614210688     100.0%      0.0%      0.0%
 flops    62 x    26 x    75            639802800     100.0%      0.0%      0.0%
 flops    71 x    32 x    71            650409984     100.0%      0.0%      0.0%
 flops    80 x    32 x    62            719953920     100.0%      0.0%      0.0%
 flops    84 x    32 x    71            769499136     100.0%      0.0%      0.0%
 flops     9 x    26 x     9            802701900     100.0%      0.0%      0.0%
 flops    62 x    26 x    71            807573312     100.0%      0.0%      0.0%
 flops    53 x    32 x    62            953938944     100.0%      0.0%      0.0%
 flops   106 x    32 x    62            953938944     100.0%      0.0%      0.0%
 flops    62 x    32 x    32            995491840     100.0%      0.0%      0.0%
 flops    22 x     9 x    32           1023644160     100.0%      0.0%      0.0%
 flops     9 x    22 x    32           1025418240     100.0%      0.0%      0.0%
 flops    32 x    32 x    62           1055932416     100.0%      0.0%      0.0%
 flops    22 x    22 x    26           1109908800     100.0%      0.0%      0.0%
 flops    71 x    32 x    62           1277918208     100.0%      0.0%      0.0%
 flops    84 x    32 x    62           1511903232     100.0%      0.0%      0.0%
 flops    62 x    32 x    75           1574899200     100.0%      0.0%      0.0%
 flops    62 x    26 x    62           1586710944     100.0%      0.0%      0.0%
 flops     9 x    32 x     9           1975881600     100.0%      0.0%      0.0%
 flops    62 x    32 x    71           1987872768     100.0%      0.0%      0.0%
 flops     9 x    26 x    22           2081079000     100.0%      0.0%      0.0%
 flops    22 x    26 x     9           2081079000     100.0%      0.0%      0.0%
 flops    22 x    22 x    32           2732083200     100.0%      0.0%      0.0%
 flops    62 x    32 x    62           3905750016     100.0%      0.0%      0.0%
 flops     9 x    32 x    22           5122656000     100.0%      0.0%      0.0%
 flops    22 x    32 x     9           5122656000     100.0%      0.0%      0.0%
 flops    22 x    26 x    22           5395390000     100.0%      0.0%      0.0%
 flops    22 x    32 x    22          13280960000     100.0%      0.0%      0.0%
 flops inhomo. stacks                           0       0.0%      0.0%      0.0%
 flops total                        78.421527E+09     100.0%      0.0%      0.0%
 flops max/rank                      3.694330E+09     100.0%      0.0%      0.0%
 matmuls inhomo. stacks                         0       0.0%      0.0%      0.0%
 matmuls total                            3102570     100.0%      0.0%      0.0%
 number of processed stacks                899754     100.0%      0.0%      0.0%
 average stack size                                     3.4       0.0       0.0
 marketing flops                    85.671830E+09
 -------------------------------------------------------------------------------
 # multiplications                           1286
 max memory usage/rank               1.861829E+09
 # max total images/rank                        2
 # max 3D layers                                1
 # MPI messages exchanged                 4773632
 MPI messages size (bytes):
  total size                        51.820175E+09
  min size                           0.000000E+00
  max size                          85.200000E+03
  average size                      10.855503E+03
 MPI breakdown and total messages size (bytes):
             size <=      128             3603593                        0
       128 < size <=     8192               95007                684059808
      8192 < size <=    32768              432852               7767738720
     32768 < size <=   131072              642180              43367724120
    131072 < size <=  4194304                   0                        0
   4194304 < size <= 16777216                   0                        0
  16777216 < size                               0                        0
 -------------------------------------------------------------------------------

 *** WARNING in dbcsr_mm.F:294 :: Using a non-square number of MPI ranks ***
 *** might lead to poor performance. Used ranks: 128 Suggested: 121 256  ***

 -------------------------------------------------------------------------------
 -                                                                             -
 -                      DBCSR MESSAGE PASSING PERFORMANCE                      -
 -                                                                             -
 -------------------------------------------------------------------------------
 ROUTINE             CALLS      AVE VOLUME [Bytes]
 MP_Bcast              111                     12.
 MP_Allreduce         6970                      9.
 MP_Alltoall          5344                  28114.
 MP_ISend            80908                   7493.
 MP_IRecv            80446                   7121.
 -------------------------------------------------------------------------------

 -------------------------------------------------------------------------------
 -                                                                             -
 -                                GRID STATISTICS                              -
 -                                                                             -
 -------------------------------------------------------------------------------
 LP    KERNEL             BACKEND                              COUNT     PERCENT
 2     collocate ortho    REF                                1126269      18.85%
 2     integrate ortho    REF                                1106014      18.52%
 1     collocate ortho    REF                                 943978      15.80%
 1     integrate ortho    REF                                 870340      14.57%
 3     integrate ortho    REF                                 570062       9.54%
 3     collocate ortho    REF                                 500530       8.38%
 0     collocate ortho    REF                                 281245       4.71%
 0     integrate ortho    REF                                 249988       4.18%
 4     integrate ortho    REF                                 121240       2.03%
 4     collocate ortho    REF                                  73823       1.24%
 0     collocate general  REF                                  60928       1.02%
 1     integrate general  REF                                  60928       1.02%
 5     integrate ortho    REF                                   8201       0.14%
 -------------------------------------------------------------------------------

 MEMORY| Estimated peak process memory [MiB]                                1859

 -------------------------------------------------------------------------------
 -                                                                             -
 -                         MESSAGE PASSING PERFORMANCE                         -
 -                                                                             -
 -------------------------------------------------------------------------------

 ROUTINE             CALLS      AVE VOLUME [Bytes]
 MP_Group                8
 MP_Bcast             6942               10565486.
 MP_Allreduce         2477                1659307.
 MP_Sync               437
 MP_Alltoall          1344                9929722.
 MP_ISendRecv        52451                  37933.
 MP_Wait             64932
 MP_comm_split          21
 MP_ISend            11347                 231818.
 MP_IRecv            11172                 234911.
 MP_Recv                98                  51216.
 -------------------------------------------------------------------------------


 -------------------------------------------------------------------------------
 -                                                                             -
 -                           R E F E R E N C E S                               -
 -                                                                             -
 -------------------------------------------------------------------------------
 
 CP2K version 8.2, the CP2K developers group (2021).
 CP2K is freely available from https://www.cp2k.org/ .

 Kuehne,Thomas D.; Iannuzzi,Marcella; Del Ben,Mauro;
 Rybkin,Vladimir V.; Seewald,Patrick; Stein,Frederick; Laino,Teodoro;
 Khaliullin,Rustam Z.; Schuett,Ole; Schiffmann,Florian; Golze,Dorothea;
 Wilhelm,Jan; Chulkov,Sergey; Bani-Hashemian,Mohammad Hossein;
 Weber,Valery; Borstnik,Urban; Taillefumier,Mathieu;
 Jakobovits,Alice Shoshana; Lazzaro,Alfio; Pabst,Hans; Mueller,Tiziano;
 Schade,Robert; Guidon,Manuel; Andermatt,Samuel; Holmberg,Nico;
 Schenter,Gregory K.; Hehn,Anna; Bussy,Augustin; Belleflamme,Fabian;
 Tabacchi,Gloria; Gloess,Andreas; Lass,Michael; Bethune,Iain;
 Mundy,Christopher J.; Plessl,Christian; Watkins,Matt;
 VandeVondele,Joost; Krack,Matthias; Hutter,Juerg. 
 The Journal of Chemical Physics, 152 (19), (2020). 
 CP2K: An electronic structure and molecular dynamics software package -
 Quickstep: Efficient and accurate electronic structure calculations.
 https://doi.org/10.1063/5.0007045

 Schuett, Ole; Messmer, Peter; Hutter, Juerg; VandeVondele, Joost. 
 Electronic Structure Calculations on Graphics Processing Units, John
 Wiley & Sons, Ltd, 173-190 (2016). 
 GPU-Accelerated Sparse Matrix-Matrix Multiplication for
 Linear Scaling Density Functional Theory.
 https://doi.org/10.1002/9781118670712.ch8

 Borstnik, U; VandeVondele, J; Weber, V; Hutter, J. 
 PARALLEL COMPUTING, 40 (5-6), 47-58 (2014). 
 Sparse matrix multiplication: The distributed block-compressed sparse
 row library.
 https://doi.org/10.1016/j.parco.2014.03.012

 Hutter, J; Iannuzzi, M; Schiffmann, F; VandeVondele, J. 
 WIREs Comput Mol Sci., 4 (1), 15-25 (2014). 
 CP2K: atomistic simulations of condensed matter systems.
 https://doi.org/10.1002/wcms.1159

 Marek, A; Blum, V; Johanni, R; Havu, V; Lang, B; Auckenthaler, T;
 Heinecke, A; Bungartz, H; Lederer, H. 
 Journal of Physics: Condensed Matter, 26 (21), (2014). 
 The ELPA library: scalable parallel eigenvalue solutions for
 electronic structure
 theory and computational science.
 https://doi.org/10.1088/0953-8984/26/21/213201

 Guidon, M; Hutter, J; VandeVondele, J. 
 JOURNAL OF CHEMICAL THEORY AND COMPUTATION, 5 (11), 3010-3021 (2009). 
 Robust Periodic Hartree-Fock Exchange for Large-Scale Simulations Using
 Gaussian Basis Sets.
 https://doi.org/10.1021/ct900494g

 Guidon, M; Schiffmann, F; Hutter, J; VandeVondele, J. 
 JOURNAL OF CHEMICAL PHYSICS, 128 (21), 214104 (2008). 
 Ab initio molecular dynamics using hybrid density functionals.
 https://doi.org/10.1063/1.2931945

 Kuhne, TD; Krack, M; Mohamed, FR; Parrinello, M. 
 PHYSICAL REVIEW LETTERS, 98 (6), 066401 (2007). 
 Efficient and accurate Car-Parrinello-like approach to
 Born-Oppenheimer molecular dynamics.
 https://doi.org/10.1103/PhysRevLett.98.066401

 Laino, T; Mohamed, F; Laio, A; Parrinello, M. 
 JOURNAL OF CHEMICAL THEORY AND COMPUTATION, 2 (5), 1370-1378 (2006). 
 An efficient linear-scaling electrostatic coupling for treating
 periodic boundary conditions in QM/MM simulations.
 https://doi.org/10.1021/ct6001169

 Laino, T; Mohamed, F; Laio, A; Parrinello, M. 
 JOURNAL OF CHEMICAL THEORY AND COMPUTATION, 1 (6), 1176-1184 (2005). 
 An efficient real space multigrid QM/MM electrostatic coupling.
 https://doi.org/10.1021/ct050123f

 Krack, M. 
 THEORETICAL CHEMISTRY ACCOUNTS, 114 (1-3), 145-152 (2005). 
 Pseudopotentials for H to Kr optimized for gradient-corrected
 exchange-correlation functionals.
 https://doi.org/10.1007/s00214-005-0655-y

 VandeVondele, J; Krack, M; Mohamed, F; Parrinello, M; Chassaing, T;
 Hutter, J. COMPUTER PHYSICS COMMUNICATIONS, 167 (2), 103-128 (2005). 
 QUICKSTEP: Fast and accurate density functional calculations using a
 mixed Gaussian and plane waves approach.
 https://doi.org/10.1016/j.cpc.2004.12.014

 Frigo, M; Johnson, SG. 
 PROCEEDINGS OF THE IEEE, 93 (2), 216-231 (2005). 
 The design and implementation of FFTW3.
 https://doi.org/10.1109/JPROC.2004.840301

 Kolafa, J. 
 JOURNAL OF COMPUTATIONAL CHEMISTRY, 25 (3), 335-342 (2004). 
 Time-reversible always stable predictor-corrector method for molecular dynamics of polarizable molecules.
 https://doi.org/10.1002/jcc.10385

 VandeVondele, J; Hutter, J. 
 JOURNAL OF CHEMICAL PHYSICS, 118 (10), 4365-4369 (2003). 
 An efficient orbital transformation method for electronic structure
 calculations.
 https://doi.org/10.1063/1.1543154

 Hartwigsen, C; Goedecker, S; Hutter, J. 
 PHYSICAL REVIEW B, 58 (7), 3641-3662 (1998). 
 Relativistic separable dual-space Gaussian pseudopotentials from H to Rn.
 https://doi.org/10.1103/PhysRevB.58.3641

 Lippert, G; Hutter, J; Parrinello, M. 
 MOLECULAR PHYSICS, 92 (3), 477-487 (1997). 
 A hybrid Gaussian and plane wave density functional scheme.
 https://doi.org/10.1080/002689797170220

 Perdew, JP; Burke, K; Ernzerhof, M. 
 PHYSICAL REVIEW LETTERS, 77 (18), 3865-3868 (1996). 
 Generalized gradient approximation made simple.
 https://doi.org/10.1103/PhysRevLett.77.3865

 Goedecker, S; Teter, M; Hutter, J. 
 PHYSICAL REVIEW B, 54 (3), 1703-1710 (1996). 
 Separable dual-space Gaussian pseudopotentials.
 https://doi.org/10.1103/PhysRevB.54.1703

 ESSMANN, U; PERERA, L; BERKOWITZ, ML; DARDEN, T; LEE, H; PEDERSEN, LG. 
 JOURNAL OF CHEMICAL PHYSICS, 103 (19), 8577-8593 (1995). 
 A SMOOTH PARTICLE MESH EWALD METHOD.
 https://doi.org/10.1063/1.470117

 BLOCHL, PE. 
 JOURNAL OF CHEMICAL PHYSICS, 103 (17), 7422-7428 (1995). 
 ELECTROSTATIC DECOUPLING OF PERIODIC IMAGES OF PLANE-WAVE-EXPANDED
 DENSITIES AND DERIVED ATOMIC POINT CHARGES.
 https://doi.org/10.1063/1.470314


 -------------------------------------------------------------------------------
 -                                                                             -
 -                                T I M I N G                                  -
 -                                                                             -
 -------------------------------------------------------------------------------
 SUBROUTINE                       CALLS  ASD         SELF TIME        TOTAL TIME
                                MAXIMUM       AVERAGE  MAXIMUM  AVERAGE  MAXIMUM
 CP2K                                 1  1.0    0.523    0.560  378.656  378.657
 qs_mol_dyn_low                       1  2.0    0.339    0.515  329.831  331.414
 velocity_verlet                      6  3.0    0.146    0.152  274.518  274.542
 qs_forces                            7  3.9    0.079    0.151  168.107  168.182
 rebuild_ks_matrix                   63  8.5    0.001    0.001  152.287  152.302
 qs_ks_build_kohn_sham_matrix        63  9.5    0.020    0.024  152.286  152.301
 hfx_ks_matrix                       63 10.5    0.004    0.005  124.640  124.647
 qs_energies                          7  4.9    0.006    0.007   91.880   91.882
 scf_env_do_scf                       7  5.9    0.000    0.001   89.029   89.029
 qmmm_forces                          7  3.9    0.061    0.064   85.660   85.662
 qmmm_forces_with_gaussian            7  4.9    2.392    2.419   84.415   85.209
 qs_ks_update_qs_env                 63  7.8    0.001    0.001   76.256   76.269
 qs_ks_update_qs_env_forces           7  4.9    0.000    0.000   76.037   76.039
 derivatives_four_center              7  8.9    0.018    0.280   69.328   69.329
 derivatives_four_center_main         7  9.9    0.097    0.261   68.875   68.876
 derivatives_four_center_bin        578 10.9   67.316   68.567   67.316   68.567
 qmmm_el_coupling                     7  3.9    0.000    0.001   67.404   67.642
 qmmm_elec_with_gaussian              7  4.9    2.047    2.214   67.398   67.638
 integrate_four_center               63 11.5    3.122    3.681   55.302   55.311
 scf_env_do_scf_inner_loop           56  6.8    0.005    0.006   54.748   54.760
 integrate_four_center_main          63 12.5    0.081    0.167   46.828   48.101
 integrate_four_center_bin         4169 13.5   46.747   48.033   46.747   48.033
 qmmm_env_create                      1  2.0    8.071    8.186   46.632   46.633
 pw_restrict_s3                      21  5.9    9.316    9.509   40.322   40.660
 pw_integral_ab                    2967  7.5   34.454   35.851   34.677   36.163
 init_scf_loop                        7  6.9    0.003    0.004   34.264   34.265
 fist_init                            1  3.0    0.147    0.165   34.075   34.076
 qmmm_force_with_gaussian_low         7  5.9    0.000    0.000   30.970   31.688
 qmmm_elec_with_gaussian:spline       7  5.9    0.000    0.000   29.821   30.082
 pw_prolongate_s3                    21  6.9    6.926    7.068   29.821   30.082
 qmmm_forces_gaussian_low_R           7  6.9    0.000    0.000   25.903   26.591
 qmmm_forces_with_gaussian_LG         7  7.9   25.903   26.591   25.903   26.591
 mp_sum_dm3                          38  5.7   24.149   24.804   24.149   24.804
 qmmm_elec_with_gaussian_low          7  5.9    0.000    0.000   22.197   23.144
 pw_transfer                       1337 12.0    0.120    0.158   19.421   20.426
 fft_wrap_pw1pw2                   1113 13.1    0.013    0.016   19.015   20.016
 qmmm_elec_gaussian_low_R             7  6.9    0.000    0.001   18.595   19.550
 qmmm_elec_with_gaussian_LG           7  7.9   18.595   19.550   18.595   19.550
 fft_wrap_pw1pw2_200                707 14.4    1.662    2.105   17.483   18.479
 force_field_control                  1  4.0    0.030    0.060   17.511   17.599
 rdparm_amber_8                       2  6.5   12.734   13.019   16.776   16.793
 topology_control                     1  4.0    0.017    0.033   16.275   16.426
 fft3d_ps                          1113 15.1    6.470    7.388   15.320   16.088
 qs_vxc_create                       63 10.5    0.004    0.005   14.431   14.433
 xc_vxc_pw_create                    63 11.5    0.262    0.360   14.427   14.430
 qs_rho_update_rho                   63  7.9    0.002    0.002   11.396   11.407
 calculate_rho_elec                  63  8.9    0.062    0.075   11.394   11.405
 force_field_pack                     1  5.0    0.018    0.050   10.284   10.370
 rs_pw_transfer                     546 11.8    0.011    0.013    9.218   10.114
 connectivity_control                 2  4.0    0.057    0.064   10.035   10.037
 read_connectivity_amber              1  6.0    0.000    0.001    9.704    9.706
 sum_up_and_integrate                63 10.5    0.073    0.101    9.300    9.320
 pw_zero                           2442  7.3    8.868    9.296    8.868    9.296
 integrate_v_rspace                  63 11.5    0.002    0.003    9.228    9.265
 density_rs2pw                       63  9.9    0.003    0.004    8.397    9.249
 mp_alltoall_z22v                  1113 17.1    7.548    8.998    7.548    8.998
 pw_axpy                           1914  8.3    7.800    8.340    7.800    8.340
 xc_rho_set_and_dset_create          63 12.5    0.127    0.137    6.530    7.610
 -------------------------------------------------------------------------------

 The number of warnings for this run is : 1
 
 -------------------------------------------------------------------------------
  **** **** ******  **  PROGRAM ENDED AT                 2021-09-01 11:33:11.647
 ***** ** ***  *** **   PROGRAM RAN ON                                 nid001650
 **    ****   ******    PROGRAM RAN BY                                     hjbio
 ***** **    ** ** **   PROGRAM PROCESS ID                                172159
  **** **  *******  **  PROGRAM STOPPED IN /lus/cls01095/work/d118/d118/hjbio/qm
                                           mm-benchmarking/archer2/CPU/cp2kMD/CB
                                           D_PHY-PBE0/6STEPS/2NODES/128CPN/2THRE
                                           ADS
