 DBCSR| CPU Multiplication driver                                           BLAS
 DBCSR| Multrec recursion limit                                              512
 DBCSR| Multiplication stack size                                           1000
 DBCSR| Maximum elements for images                                    UNLIMITED
 DBCSR| Multiplicative factor virtual images                                   1
 DBCSR| Use multiplication densification                                       T
 DBCSR| Multiplication size stacks                                             3
 DBCSR| Use memory pool for CPU allocation                                     F
 DBCSR| Number of 3D layers                                               SINGLE
 DBCSR| Use MPI memory allocation                                              F
 DBCSR| Use RMA algorithm                                                      F
 DBCSR| Use Communication thread                                               T
 DBCSR| Communication thread load                                             60
 DBCSR| MPI: My node id                                                        0
 DBCSR| MPI: Number of nodes                                                  32
 DBCSR| OMP: Current number of threads                                         8
 DBCSR| OMP: Max number of threads                                             8
 DBCSR| Split modifier for TAS multiplication algorithm                  1.0E+00


  **** **** ******  **  PROGRAM STARTED AT               2021-12-10 13:41:06.718
 ***** ** ***  *** **   PROGRAM STARTED ON                             nid003283
 **    ****   ******    PROGRAM STARTED BY                                 hjbio
 ***** **    ** ** **   PROGRAM PROCESS ID                                157600
  **** **  *******  **  PROGRAM STARTED IN /mnt/lustre/a2fs-work1/work/d118/d118
                                           /hjbio/CP2K/qmmm-benchmarking/CPU/cp2
                                           kMD/ClC-253-B3LYP/1STEPS/2NODES/128CP
                                           N/8THREADS

 CP2K| version string:                                          CP2K version 8.2
 CP2K| source code revision number:                                  git:310b7ab
 CP2K| cp2kflags: omp libint fftw3 libxc elpa parallel mpi3 scalapack plumed2   
 CP2K| is freely available from                            https://www.cp2k.org/
 CP2K| Program compiled at                          Thu Dec  2 10:30:45 GMT 2021
 CP2K| Program compiled on                                                  ln02
 CP2K| Program compiled for                                              ARCHER2
 CP2K| Data directory path         /work/y07/shared/apps/core/cp2k/cp2k-8.2/data
 CP2K| Input file name                                          ClC-253-cp2k.inp

 GLOBAL| Force Environment number                                              1
 GLOBAL| Basis set file name                                     EMSL_BASIS_SETS
 GLOBAL| Potential file name                                           POTENTIAL
 GLOBAL| MM Potential file name                                     MM_POTENTIAL
 GLOBAL| Coordinate file name                                            ClC.pdb
 GLOBAL| Method name                                                        CP2K
 GLOBAL| Project name                                              ClC-253-B3LYP
 GLOBAL| Run type                                                             MD
 GLOBAL| FFT library                                                       FFTW3
 GLOBAL| Diagonalization library                                            ELPA
 GLOBAL| Minimum number of eigenvectors for ELPA usage                        16
 GLOBAL| Orthonormality check for eigenvectors                          DISABLED
 GLOBAL| Matrix multiplication library                                    SCALAP
 GLOBAL| All-to-all communication in single precision                          F
 GLOBAL| FFTs using library dependent lengths                                  F
 GLOBAL| Grid backend                                                       AUTO
 GLOBAL| Global print level                                                  LOW
 GLOBAL| MPI I/O enabled                                                       T
 GLOBAL| Total number of message passing processes                            32
 GLOBAL| Number of threads for this process                                    8
 GLOBAL| This output is from process                                           0
 GLOBAL| CPU model name                          AMD EPYC 7742 64-Core Processor
 GLOBAL| CPUID                                                              1002

 MEMORY| system memory details [Kb]
 MEMORY|                        rank 0           min           max       average
 MEMORY| MemTotal            263528088     263528088     263528088     263528088
 MEMORY| MemFree             251968984     251968984     252096044     252032514
 MEMORY| Buffers                 31188         28284         31188         29736
 MEMORY| Cached                 812504        812504        812672        812588
 MEMORY| Slab                  1498872       1478888       1498872       1488880
 MEMORY| SReclaimable            79164         77736         79164         78450
 MEMORY| MemLikelyFree       252891840     252891840     253014736     252953288



                      ************* ******** ***********   
                     ************* **********************  
                     ****     **** ****      ***********   
                     ******** ****  *******     ****       
                     *******  ****   *******   ****        
                     ****     ****       ****  ****        
                     ****     **** **********  ****        
                      ****     **** ********    ****       
                     FRONTIERS IN SIMULATION TECHNOLOGY    
                                                           
                        C.J. Mundy, S. Balasubramanian,    
                     Ken Bagchi, J. Hutter, Ari Seitsonen  
                      IFW Kuo, T. Laino, J. VandeVondele   
                                 Version 1.0               

                                                           


 EWALD| Summation is done by:                                               SPME
 EWALD| Alpha parameter [       ANGSTROM^-1]                              0.4000
 EWALD| Real Space Cutoff [          ANGSTROM]                            8.4348
 EWALD| G-space max. Miller index                         80        80        80
 EWALD| Spline interpolation order                                             6

 FORCEFIELD| WARNING: A non Critical ForceField parameter is missing! CP2K GOES!
 FORCEFIELD| Non critical parameters are:Urey-Bradley,Torsions,Impropers, Opbends and 1-4
 FORCEFIELD| All missing parameters will not contribute to the potential energy!
 FORCEFIELD| Activate the print key FF_INFO to have a list of missing parameters

 CHARGE_INFO| Total Charge of the Classical System:                     2.369895

 SPLINE_INFO| Generating 85491 splines for NONBONDED14 interactions 
              Due to 413 different atomic kinds
  ...8549  ...17098  ...25647  ...34196  ...42745  ...51294  ...59843  ...68392  ...76941  ...85490
 SPLINE_INFO| Number of unique splines computed:            254
 SPLINE_INFO| Done

 SPLINE_INFO| Generating 85491 splines for NONBONDED interactions 
              Due to 413 different atomic kinds
  ...8549  ...17098  ...25647  ...34196  ...42745  ...51294  ...59843  ...68392  ...76941  ...85490
 SPLINE_INFO| Number of unique splines computed:            254
 SPLINE_INFO| Done

 *******************************************************************************
 *******************************************************************************
 **                                                                           **
 **     #####                         ##              ##                      **
 **    ##   ##            ##          ##              ##                      **
 **   ##     ##                       ##            ######                    **
 **   ##     ##  ##   ##  ##   #####  ##  ##   ####   ##    #####    #####    **
 **   ##     ##  ##   ##  ##  ##      ## ##   ##      ##   ##   ##  ##   ##   **
 **   ##  ## ##  ##   ##  ##  ##      ####     ###    ##   ######   ######    **
 **    ##  ###   ##   ##  ##  ##      ## ##      ##   ##   ##       ##        **
 **     #######   #####   ##   #####  ##  ##  ####    ##    #####   ##        **
 **           ##                                                    ##        **
 **                                                                           **
 **                                                ... make the atoms dance   **
 **                                                                           **
 **            Copyright (C) by CP2K developers group (2000-2021)             **
 **                      J. Chem. Phys. 152, 194103 (2020)                    **
 **                                                                           **
 *******************************************************************************


 TOTAL NUMBERS AND MAXIMUM NUMBERS

  Total number of            - Atomic kinds:                                   6
                             - Atoms:                                        253
                             - Shell sets:                                   876
                             - Shells:                                      1109
                             - Primitive Cartesian functions:               1967
                             - Cartesian basis functions:                   2429
                             - Spherical basis functions:                   2313

  Maximum angular momentum of- Orbital basis functions:                        2
                             - Local part of the GTH pseudopotential:          2
                             - Non-local part of the GTH pseudopotential:      2


 SCF PARAMETERS         Density guess:                                   RESTART
                        --------------------------------------------------------
                        max_scf:                                              50
                        max_scf_history:                                       0
                        max_diis:                                              4
                        --------------------------------------------------------
                        eps_scf:                                        1.00E-06
                        eps_scf_history:                                0.00E+00
                        eps_diis:                                       1.00E-01
                        eps_eigval:                                     1.00E-05
                        --------------------------------------------------------
                        level_shift [a.u.]:                                 0.00
                        --------------------------------------------------------
                        Outer loop SCF in use 
                        No variables optimised in outer loop
                        eps_scf                                         1.00E-06
                        max_scf                                               20
                        No outer loop optimization
                        step_size                                       5.00E-01

 *******************************************************************************
 *******************************************************************************
 **                                                                           **
 **             #######  ##     ## ##     ## ##     ##                        **
 **            ##     ## ###   ### ###   ### ###   ###                        **
 **            ##     ## #### #### #### #### #### ####                        **
 **            ##     ## ## ### ## ## ### ## ## ### ##                        **
 **            ##  ## ## ##     ## ##     ## ##     ##                        **
 **            ##    ##  ##     ## ##     ## ##     ##  T.Laino and F.Mohamed **
 **             ##### ## ##     ## ##     ## ##     ##  2005 - 2015           **
 **                                                                           **
 **                                                     Calculation Started.. **
 *******************************************************************************
 *******************************************************************************

 MD_PAR| Molecular dynamics protocol (MD input parameters)
 MD_PAR| Ensemble type                                                       NVE
 MD_PAR| Number of time steps                                                  1
 MD_PAR| Time step [fs]                                                 1.000000
 MD_PAR| Temperature [K]                                              300.000000
 MD_PAR| Temperature tolerance [K]                                      0.000000
 MD_PAR| Print MD information every                                    1 step(s)
 MD_PAR| File type   Print frequency [steps]                          File names
 MD_PAR| Coordinates          1                          ClC-253-B3LYP-pos-1.xyz
 MD_PAR| Velocities           1                          ClC-253-B3LYP-vel-1.xyz
 MD_PAR| Energies             1                             ClC-253-B3LYP-1.ener
 MD_PAR| Dump                20                          ClC-253-B3LYP-1.restart

 ROT| Rotational analysis information
 ROT| Principal axes and moments of inertia [a.u.]
 ROT|                           1                   2                   3
 ROT| Eigenvalues      1.18228221563E+13   1.18772146411E+13   1.55923586977E+13
 ROT|      x             -0.973134378681     -0.230223222672      0.002597839626
 ROT|      y             -0.230225448758      0.973137141292     -0.000589052320
 ROT|      z              0.002392440703      0.001171315857      0.999996452117
 ROT| Number of rotovibrational vectors                                        6

 DOF| Calculation of degrees of freedom
 DOF| Number of atoms                                                     150925
 DOF| Number of intramolecular constraints                                     0
 DOF| Number of intermolecular constraints                                     0
 DOF| Invariants (translations + rotations)                                    3
 DOF| Degrees of freedom                                                  452772

 DOF| Restraints information
 DOF| Number of intramolecular restraints                                      0
 DOF| Number of intermolecular restraints                                      0

 MD_VEL| Velocities initialization
 MD_VEL| Initial temperature [K]                                      300.000000
 MD_VEL| COM velocity            -0.0000000000     0.0000000000     0.0000000000

  Translating the system in order to center the QM fragment in the QM box.

 Number of electrons:                                                        654
 Number of occupied orbitals:                                                327
 Number of molecular orbitals:                                               327

 Number of orbital functions:                                               2313
 Number of independent orbital functions:                                   2313

 Extrapolation method: initial_guess


 SCF WAVEFUNCTION OPTIMIZATION

  ----------------------------------- OT ---------------------------------------
  Minimizer      : DIIS                : direct inversion
                                         in the iterative subspace
                                         using   7 DIIS vectors
                                         safer DIIS on
  Preconditioner : FULL_ALL            : diagonalization, state selective
  Precond_solver : DEFAULT
  stepsize       :    0.15000000                  energy_gap     :    0.08000000
  eps_taylor     :   0.10000E-15                  max_taylor     :             4
  ----------------------------------- OT ---------------------------------------

  Step     Update method      Time    Convergence         Total energy    Change
  ------------------------------------------------------------------------------
  Decoupling Energy:                                               0.0652965565
  Recoupling Energy:                                              -0.0067743629

 *** WARNING in hfx_energy_potential.F:592 :: The Kohn Sham matrix is not  ***
 *** 100% occupied. This may result in incorrect Hartree-Fock results. Try ***
 *** to decrease EPS_PGF_ORB and EPS_FILTER_MATRIX in the QS section. For  ***
 *** more information see FAQ: https://www.cp2k.org/faq:hfx_eps_warning    ***

     1 OT DIIS     0.15E+00   44.3     0.00000147     -1097.2146398364 -1.10E+03
  Decoupling Energy:                                               0.0652912916
  Recoupling Energy:                                              -0.0067742598
     2 OT DIIS     0.15E+00    5.1     0.00000228     -1097.2146398847 -4.83E-08
  Decoupling Energy:                                               0.0652926349
  Recoupling Energy:                                              -0.0067742782
     3 OT DIIS     0.15E+00    5.1     0.00000108     -1097.2146399880 -1.03E-07
  Decoupling Energy:                                               0.0652927569
  Recoupling Energy:                                              -0.0067742854
     4 OT DIIS     0.15E+00    5.1     0.00000091     -1097.2146400405 -5.25E-08

  *** SCF run converged in     4 steps ***


  Electronic density on regular grids:       -654.0001611163       -0.0001611163
  Core density on regular grids:              654.9999999993       -0.0000000007
  Total charge density on r-space grids:        0.9998388831
  Total charge density g-space grids:           0.9998388831

  Overlap energy of the core charge distribution:               0.00004213532864
  Self energy of the core charge distribution:              -2459.11679630764229
  Core Hamiltonian energy:                                    757.75939632524626
  Hartree energy:                                            1000.45244191766915
  Exchange-correlation energy:                               -243.02999618370754
  Hartree-Fock Exchange energy:                               -54.33827195783199
  QM/MM Electrostatic energy:                                 -98.94145596953703

  Total energy:                                             -1097.21464004047471

  outer SCF iter =    1 RMS gradient =   0.91E-06 energy =      -1097.2146400405
  outer SCF loop converged in   1 iterations or    4 steps

  Decoupling Energy:                                               0.0652923664
  Recoupling Energy:                                              -0.0067742723

 ENERGY| Total FORCE_EVAL ( QMMM ) energy [a.u.]:          -1468.298508616291201

 MD_INI| MD initialization
 MD_INI| Potential energy [hartree]                          -0.146829850862E+04
 MD_INI| Total kinetic energy [hartree]                       0.215076797492E+03
 MD_INI| QM kinetic energy [hartree]                          0.369606607592E+00
 MD_INI| Total temperature [K]                                        300.000000
 MD_INI| QM temperature [K]                                           307.542546
 MD_INI| Cell volume [bohr^3]                                 9.853827160554E+06
 MD_INI| Cell volume [ang^3]                                  1.460186515536E+06
 MD_INI| Cell lengths [bohr]      2.39870119E+02  2.39870119E+02  1.71258698E+02
 MD_INI| Cell lengths [ang]       1.26933800E+02  1.26933800E+02  9.06262000E+01
 MD_INI| Cell angles [deg]        9.00000000E+01  9.00000000E+01  9.00000000E+01

  Translating the system in order to center the QM fragment in the QM box.

 Number of electrons:                                                        654
 Number of occupied orbitals:                                                327
 Number of molecular orbitals:                                               327

 Number of orbital functions:                                               2313
 Number of independent orbital functions:                                   2313

 Extrapolation method: ASPC


 SCF WAVEFUNCTION OPTIMIZATION

  ----------------------------------- OT ---------------------------------------
  Minimizer      : DIIS                : direct inversion
                                         in the iterative subspace
                                         using   7 DIIS vectors
                                         safer DIIS on
  Preconditioner : FULL_ALL            : diagonalization, state selective
  Precond_solver : DEFAULT
  stepsize       :    0.15000000                  energy_gap     :    0.08000000
  eps_taylor     :   0.10000E-15                  max_taylor     :             4
  ----------------------------------- OT ---------------------------------------

  Step     Update method      Time    Convergence         Total energy    Change
  ------------------------------------------------------------------------------
  Decoupling Energy:                                               0.0654977899
  Recoupling Energy:                                              -0.0067751650

 *** WARNING in hfx_energy_potential.F:592 :: The Kohn Sham matrix is not  ***
 *** 100% occupied. This may result in incorrect Hartree-Fock results. Try ***
 *** to decrease EPS_PGF_ORB and EPS_FILTER_MATRIX in the QS section. For  ***
 *** more information see FAQ: https://www.cp2k.org/faq:hfx_eps_warning    ***

     1 OT DIIS     0.15E+00   38.6     0.00039341     -1096.7916980265 -1.10E+03
  Decoupling Energy:                                               0.0653301297
  Recoupling Energy:                                              -0.0067715231
     2 OT DIIS     0.15E+00    5.4     0.00021598     -1096.8028091283 -1.11E-02
  Decoupling Energy:                                               0.0655799299
  Recoupling Energy:                                              -0.0067741026
     3 OT DIIS     0.15E+00    5.3     0.00035740     -1096.8033039357 -4.95E-04
  Decoupling Energy:                                               0.0653764852
  Recoupling Energy:                                              -0.0067727351
     4 OT DIIS     0.15E+00    5.3     0.00011433     -1096.8053648813 -2.06E-03
  Decoupling Energy:                                               0.0653370463
  Recoupling Energy:                                              -0.0067710846
     5 OT DIIS     0.15E+00    5.3     0.00003630     -1096.8056470365 -2.82E-04
  Decoupling Energy:                                               0.0653622179
  Recoupling Energy:                                              -0.0067719019
     6 OT DIIS     0.15E+00    5.3     0.00002251     -1096.8056710487 -2.40E-05
  Decoupling Energy:                                               0.0653570149
  Recoupling Energy:                                              -0.0067717605
     7 OT DIIS     0.15E+00    5.3     0.00000833     -1096.8056819662 -1.09E-05
  Decoupling Energy:                                               0.0653435166
  Recoupling Energy:                                              -0.0067715343
     8 OT DIIS     0.15E+00    5.4     0.00000521     -1096.8056860115 -4.05E-06
  Decoupling Energy:                                               0.0653463767
  Recoupling Energy:                                              -0.0067717022
     9 OT DIIS     0.15E+00    5.3     0.00000484     -1096.8056876755 -1.66E-06
  Decoupling Energy:                                               0.0653376665
  Recoupling Energy:                                              -0.0067715744
    10 OT DIIS     0.15E+00    5.3     0.00000367     -1096.8056893840 -1.71E-06
  Decoupling Energy:                                               0.0653304000
  Recoupling Energy:                                              -0.0067715129
    11 OT DIIS     0.15E+00    5.3     0.00000341     -1096.8056914599 -2.08E-06
  Decoupling Energy:                                               0.0653234137
  Recoupling Energy:                                              -0.0067715029
    12 OT DIIS     0.15E+00    5.4     0.00000334     -1096.8056931409 -1.68E-06
  Decoupling Energy:                                               0.0653159638
  Recoupling Energy:                                              -0.0067714460
    13 OT DIIS     0.15E+00    5.3     0.00000317     -1096.8056949515 -1.81E-06
  Decoupling Energy:                                               0.0653053889
  Recoupling Energy:                                              -0.0067713832
    14 OT DIIS     0.15E+00    5.4     0.00000277     -1096.8056969620 -2.01E-06
  Decoupling Energy:                                               0.0652930184
  Recoupling Energy:                                              -0.0067713040
    15 OT DIIS     0.15E+00    5.3     0.00000250     -1096.8056989651 -2.00E-06
  Decoupling Energy:                                               0.0652804329
  Recoupling Energy:                                              -0.0067712343
    16 OT DIIS     0.15E+00    5.4     0.00000224     -1096.8057007370 -1.77E-06
  Decoupling Energy:                                               0.0652659196
  Recoupling Energy:                                              -0.0067711664
    17 OT DIIS     0.15E+00    5.3     0.00000188     -1096.8057025618 -1.82E-06
  Decoupling Energy:                                               0.0652556334
  Recoupling Energy:                                              -0.0067710616
    18 OT DIIS     0.15E+00    5.4     0.00000183     -1096.8057033999 -8.38E-07
  Decoupling Energy:                                               0.0652439491
  Recoupling Energy:                                              -0.0067710114
    19 OT DIIS     0.15E+00    5.3     0.00000155     -1096.8057044437 -1.04E-06
  Decoupling Energy:                                               0.0652342725
  Recoupling Energy:                                              -0.0067709542
    20 OT DIIS     0.15E+00    5.3     0.00000152     -1096.8057050735 -6.30E-07
  Decoupling Energy:                                               0.0652274787
  Recoupling Energy:                                              -0.0067708943
    21 OT DIIS     0.15E+00    5.3     0.00000140     -1096.8057055141 -4.41E-07
  Decoupling Energy:                                               0.0652205588
  Recoupling Energy:                                              -0.0067708486
    22 OT DIIS     0.15E+00    5.4     0.00000133     -1096.8057058828 -3.69E-07
  Decoupling Energy:                                               0.0652145566
  Recoupling Energy:                                              -0.0067708050
    23 OT DIIS     0.15E+00    5.3     0.00000119     -1096.8057061970 -3.14E-07
  Decoupling Energy:                                               0.0652084931
  Recoupling Energy:                                              -0.0067707610
    24 OT DIIS     0.15E+00    5.4     0.00000116     -1096.8057065141 -3.17E-07
  Decoupling Energy:                                               0.0652023934
  Recoupling Energy:                                              -0.0067707108
    25 OT DIIS     0.15E+00    5.3     0.00000108     -1096.8057068170 -3.03E-07
  Decoupling Energy:                                               0.0651961402
  Recoupling Energy:                                              -0.0067706552
    26 OT DIIS     0.15E+00    5.4     0.00000105     -1096.8057071345 -3.17E-07
  Decoupling Energy:                                               0.0651922341
  Recoupling Energy:                                              -0.0067706331
    27 OT DIIS     0.15E+00    5.3     0.00000101     -1096.8057073503 -2.16E-07
  Decoupling Energy:                                               0.0651865932
  Recoupling Energy:                                              -0.0067705841
    28 OT DIIS     0.15E+00    5.4     0.00000100     -1096.8057076299 -2.80E-07

  *** SCF run converged in    28 steps ***


  Electronic density on regular grids:       -654.0002714725       -0.0002714725
  Core density on regular grids:              654.9999999988       -0.0000000012
  Total charge density on r-space grids:        0.9997285263
  Total charge density g-space grids:           0.9997285263

  Overlap energy of the core charge distribution:               0.00004340930318
  Self energy of the core charge distribution:              -2459.11679630764229
  Core Hamiltonian energy:                                    757.53689445530108
  Hartree energy:                                            1000.61837559562639
  Exchange-correlation energy:                               -242.98563651926986
  Hartree-Fock Exchange energy:                               -54.32729775925351
  QM/MM Electrostatic energy:                                 -98.53129050398476

  Total energy:                                             -1096.80570762991988

  outer SCF iter =    1 RMS gradient =   0.10E-05 energy =      -1096.8057076299
  outer SCF loop converged in   1 iterations or   28 steps

  Decoupling Energy:                                               0.0651833402
  Recoupling Energy:                                              -0.0067705547

 ENERGY| Total FORCE_EVAL ( QMMM ) energy [a.u.]:          -1446.419720426921231

 MD| ***************************************************************************
 MD| Step number                                                               1
 MD| Time [fs]                                                          1.000000
 MD| Conserved quantity [hartree]                            -0.124771269465E+04
 MD| ---------------------------------------------------------------------------
 MD|                                          Instantaneous             Averages
 MD| CPU time per MD step [s]                    322.901383           322.901383
 MD| Energy drift per atom [K]           0.115263060206E+02   0.000000000000E+00
 MD| Potential energy [hartree]         -0.144641972043E+04  -0.144641972043E+04
 MD| Total kinetic energy [hartree]      0.198707025772E+03   0.198707025772E+03
 MD| QM kinetic energy [hartree]         0.372936161594E+00   0.372936161594E+00
 MD| Total temperature [K]                       277.166614           277.166614
 MD| QM temperature [K]                          310.313004           310.313004
 MD| ***************************************************************************

 -------------------------------------------------------------------------------
 -                                                                             -
 -                                DBCSR STATISTICS                             -
 -                                                                             -
 -------------------------------------------------------------------------------
 COUNTER                                    TOTAL       BLAS       SMM       ACC
 flops    18 x     7 x     7                 3528     100.0%      0.0%      0.0%
 flops     5 x     7 x     7               134260     100.0%      0.0%      0.0%
 flops    14 x     7 x     7               315560     100.0%      0.0%      0.0%
 flops    18 x     7 x    18               353808     100.0%      0.0%      0.0%
 flops    18 x    32 x    32               737280     100.0%      0.0%      0.0%
 flops    18 x    18 x    39               909792     100.0%      0.0%      0.0%
 flops    18 x    18 x    64              2985984     100.0%      0.0%      0.0%
 flops     7 x    39 x    39              3577392     100.0%      0.0%      0.0%
 flops    18 x    18 x    32              3732480     100.0%      0.0%      0.0%
 flops    24 x    39 x    39             11681280     100.0%      0.0%      0.0%
 flops     7 x    39 x    64             11741184     100.0%      0.0%      0.0%
 flops     7 x    64 x    39             11741184     100.0%      0.0%      0.0%
 flops     5 x     7 x    18             13464360     100.0%      0.0%      0.0%
 flops    18 x     7 x     5             13464360     100.0%      0.0%      0.0%
 flops     7 x    32 x    39             14676480     100.0%      0.0%      0.0%
 flops     7 x    39 x    32             14676480     100.0%      0.0%      0.0%
 flops    18 x    32 x    18             16174080     100.0%      0.0%      0.0%
 flops     5 x    18 x    39             17184960     100.0%      0.0%      0.0%
 flops    18 x     5 x    39             17437680     100.0%      0.0%      0.0%
 flops     7 x    39 x   281             19945380     100.0%      0.0%      0.0%
 flops    53 x    39 x    39             25796160     100.0%      0.0%      0.0%
 flops     5 x    32 x    32             28057600     100.0%      0.0%      0.0%
 flops    14 x     7 x    18             31370976     100.0%      0.0%      0.0%
 flops    18 x     7 x    14             31370976     100.0%      0.0%      0.0%
 flops    24 x    39 x   281             35770176     100.0%      0.0%      0.0%
 flops    24 x    64 x    39             38338560     100.0%      0.0%      0.0%
 flops    24 x    39 x    64             38338560     100.0%      0.0%      0.0%
 flops     7 x    64 x    64             38535168     100.0%      0.0%      0.0%
 flops    18 x    14 x    39             39626496     100.0%      0.0%      0.0%
 flops    14 x    18 x    39             41041728     100.0%      0.0%      0.0%
 flops     7 x    39 x   290             41168400     100.0%      0.0%      0.0%
 flops    43 x    39 x    39             41857920     100.0%      0.0%      0.0%
 flops    24 x    32 x    39             47923200     100.0%      0.0%      0.0%
 flops    24 x    39 x    32             47923200     100.0%      0.0%      0.0%
 flops     7 x    32 x    64             48168960     100.0%      0.0%      0.0%
 flops     7 x    64 x    32             48168960     100.0%      0.0%      0.0%
 flops     5 x    18 x    64             56401920     100.0%      0.0%      0.0%
 flops    18 x     5 x    64             57231360     100.0%      0.0%      0.0%
 flops     7 x    32 x    32             60211200     100.0%      0.0%      0.0%
 flops    62 x    39 x    39             60353280     100.0%      0.0%      0.0%
 flops     7 x    39 x   286             60900840     100.0%      0.0%      0.0%
 flops     7 x    64 x   281             65461760     100.0%      0.0%      0.0%
 flops    14 x    32 x    32             65945600     100.0%      0.0%      0.0%
 flops     5 x    18 x    32             70502400     100.0%      0.0%      0.0%
 flops    18 x     5 x    32             71539200     100.0%      0.0%      0.0%
 flops    24 x    39 x   290             73831680     100.0%      0.0%      0.0%
 flops    53 x    39 x   281             78992472     100.0%      0.0%      0.0%
 flops     7 x    32 x   281             81827200     100.0%      0.0%      0.0%
 flops    53 x    39 x    64             84664320     100.0%      0.0%      0.0%
 flops    53 x    64 x    39             84664320     100.0%      0.0%      0.0%
 flops    90 x    39 x    39             87609600     100.0%      0.0%      0.0%
 flops    53 x    32 x    39            105830400     100.0%      0.0%      0.0%
 flops    53 x    39 x    32            105830400     100.0%      0.0%      0.0%
 flops    24 x    39 x   286            109219968     100.0%      0.0%      0.0%
 flops    24 x    64 x   281            117399552     100.0%      0.0%      0.0%
 flops    24 x    64 x    64            125829120     100.0%      0.0%      0.0%
 flops    43 x    39 x   281            128176464     100.0%      0.0%      0.0%
 flops    18 x    14 x    64            130056192     100.0%      0.0%      0.0%
 flops    14 x    18 x    64            134701056     100.0%      0.0%      0.0%
 flops     7 x    64 x   290            135116800     100.0%      0.0%      0.0%
 flops    43 x    39 x    64            137379840     100.0%      0.0%      0.0%
 flops    43 x    64 x    39            137379840     100.0%      0.0%      0.0%
 flops    24 x    32 x   281            146749440     100.0%      0.0%      0.0%
 flops    76 x    39 x    39            147962880     100.0%      0.0%      0.0%
 flops    24 x    64 x    32            157286400     100.0%      0.0%      0.0%
 flops    24 x    32 x    64            157286400     100.0%      0.0%      0.0%
 flops    18 x    14 x    32            162570240     100.0%      0.0%      0.0%
 flops    53 x    39 x   290            163044960     100.0%      0.0%      0.0%
 flops    32 x    39 x    39            163537920     100.0%      0.0%      0.0%
 flops    14 x    18 x    32            168376320     100.0%      0.0%      0.0%
 flops     7 x    32 x   290            168896000     100.0%      0.0%      0.0%
 flops    43 x    32 x    39            171724800     100.0%      0.0%      0.0%
 flops    43 x    39 x    32            171724800     100.0%      0.0%      0.0%
 flops    62 x    39 x   281            184812576     100.0%      0.0%      0.0%
 flops    24 x    32 x    32            196608000     100.0%      0.0%      0.0%
 flops    62 x    64 x    39            198082560     100.0%      0.0%      0.0%
 flops    62 x    39 x    64            198082560     100.0%      0.0%      0.0%
 flops     7 x    64 x   286            199879680     100.0%      0.0%      0.0%
 flops    81 x    39 x    39            236545920     100.0%      0.0%      0.0%
 flops    53 x    39 x   286            241194096     100.0%      0.0%      0.0%
 flops    24 x    64 x   290            242319360     100.0%      0.0%      0.0%
 flops    62 x    32 x    39            247603200     100.0%      0.0%      0.0%
 flops    62 x    39 x    32            247603200     100.0%      0.0%      0.0%
 flops     7 x    32 x   286            249849600     100.0%      0.0%      0.0%
 flops    53 x    64 x   281            259257344     100.0%      0.0%      0.0%
 flops    43 x    39 x   290            264563520     100.0%      0.0%      0.0%
 flops    90 x    39 x   281            268276320     100.0%      0.0%      0.0%
 flops    53 x    64 x    64            277872640     100.0%      0.0%      0.0%
 flops    90 x    39 x    64            287539200     100.0%      0.0%      0.0%
 flops    90 x    64 x    39            287539200     100.0%      0.0%      0.0%
 flops    24 x    32 x   290            302899200     100.0%      0.0%      0.0%
 flops    53 x    32 x   281            324071680     100.0%      0.0%      0.0%
 flops    53 x    32 x    64            347340800     100.0%      0.0%      0.0%
 flops    53 x    64 x    32            347340800     100.0%      0.0%      0.0%
 flops    24 x    64 x   286            358465536     100.0%      0.0%      0.0%
 flops    90 x    32 x    39            359424000     100.0%      0.0%      0.0%
 flops    90 x    39 x    32            359424000     100.0%      0.0%      0.0%
 flops    62 x    39 x   290            381463680     100.0%      0.0%      0.0%
 flops    43 x    39 x   286            391371552     100.0%      0.0%      0.0%
 flops    43 x    64 x   281            420681728     100.0%      0.0%      0.0%
 flops    53 x    32 x    32            434176000     100.0%      0.0%      0.0%
 flops    24 x    32 x   286            448081920     100.0%      0.0%      0.0%
 flops    43 x    64 x    64            450887680     100.0%      0.0%      0.0%
 flops    76 x    39 x   281            453088896     100.0%      0.0%      0.0%
 flops     5 x     7 x     5            481393500     100.0%      0.0%      0.0%
 flops    76 x    64 x    39            485621760     100.0%      0.0%      0.0%
 flops    76 x    39 x    64            485621760     100.0%      0.0%      0.0%
 flops    43 x    32 x   281            525852160     100.0%      0.0%      0.0%
 flops    53 x    64 x   290            535121920     100.0%      0.0%      0.0%
 flops    32 x    64 x    39            536739840     100.0%      0.0%      0.0%
 flops    32 x    39 x    64            536739840     100.0%      0.0%      0.0%
 flops    90 x    39 x   290            553737600     100.0%      0.0%      0.0%
 flops    43 x    32 x    64            563609600     100.0%      0.0%      0.0%
 flops    43 x    64 x    32            563609600     100.0%      0.0%      0.0%
 flops    62 x    39 x   286            564303168     100.0%      0.0%      0.0%
 flops    62 x    64 x   281            606564352     100.0%      0.0%      0.0%
 flops    76 x    32 x    39            607027200     100.0%      0.0%      0.0%
 flops    76 x    39 x    32            607027200     100.0%      0.0%      0.0%
 flops     5 x    32 x    18            615513600     100.0%      0.0%      0.0%
 flops    18 x    32 x     5            615513600     100.0%      0.0%      0.0%
 flops     5 x     5 x    39            623750400     100.0%      0.0%      0.0%
 flops    62 x    64 x    64            650117120     100.0%      0.0%      0.0%
 flops    53 x    32 x   290            668902400     100.0%      0.0%      0.0%
 flops    32 x    32 x    39            670924800     100.0%      0.0%      0.0%
 flops    32 x    39 x    32            670924800     100.0%      0.0%      0.0%
 flops    43 x    32 x    32            704512000     100.0%      0.0%      0.0%
 flops    81 x    39 x   281            724346064     100.0%      0.0%      0.0%
 flops    62 x    32 x   281            758205440     100.0%      0.0%      0.0%
 flops    81 x    39 x    64            776355840     100.0%      0.0%      0.0%
 flops    81 x    64 x    39            776355840     100.0%      0.0%      0.0%
 flops    53 x    64 x   286            791611392     100.0%      0.0%      0.0%
 flops    62 x    64 x    32            812646400     100.0%      0.0%      0.0%
 flops    62 x    32 x    64            812646400     100.0%      0.0%      0.0%
 flops    90 x    39 x   286            819149760     100.0%      0.0%      0.0%
 flops    43 x    64 x   290            868311040     100.0%      0.0%      0.0%
 flops    90 x    64 x   281            880496640     100.0%      0.0%      0.0%
 flops    32 x    39 x   281            911788800     100.0%      0.0%      0.0%
 flops    76 x    39 x   290            935201280     100.0%      0.0%      0.0%
 flops    90 x    64 x    64            943718400     100.0%      0.0%      0.0%
 flops    81 x    32 x    39            970444800     100.0%      0.0%      0.0%
 flops    81 x    39 x    32            970444800     100.0%      0.0%      0.0%
 flops    53 x    32 x   286            989514240     100.0%      0.0%      0.0%
 flops    62 x    32 x    32           1015808000     100.0%      0.0%      0.0%
 flops    43 x    32 x   290           1085388800     100.0%      0.0%      0.0%
 flops    14 x     7 x     5           1086809220     100.0%      0.0%      0.0%
 flops     5 x     7 x    14           1086809220     100.0%      0.0%      0.0%
 flops    90 x    32 x   281           1100620800     100.0%      0.0%      0.0%
 flops    90 x    32 x    64           1179648000     100.0%      0.0%      0.0%
 flops    90 x    64 x    32           1179648000     100.0%      0.0%      0.0%
 flops    62 x    64 x   290           1251983360     100.0%      0.0%      0.0%
 flops    43 x    64 x   286           1284501504     100.0%      0.0%      0.0%
 flops    76 x    39 x   286           1383452928     100.0%      0.0%      0.0%
 flops     5 x    14 x    39           1397148480     100.0%      0.0%      0.0%
 flops    14 x     5 x    39           1397508840     100.0%      0.0%      0.0%
 flops    14 x    32 x    18           1434101760     100.0%      0.0%      0.0%
 flops    18 x    32 x    14           1434101760     100.0%      0.0%      0.0%
 flops    90 x    32 x    32           1474560000     100.0%      0.0%      0.0%
 flops    76 x    64 x   281           1487060992     100.0%      0.0%      0.0%
 flops    81 x    39 x   290           1495091520     100.0%      0.0%      0.0%
 flops    62 x    32 x   290           1564979200     100.0%      0.0%      0.0%
 flops    76 x    64 x    64           1593835520     100.0%      0.0%      0.0%
 flops    43 x    32 x   286           1605626880     100.0%      0.0%      0.0%
 flops    32 x    64 x    64           1761607680     100.0%      0.0%      0.0%
 flops    90 x    64 x   290           1817395200     100.0%      0.0%      0.0%
 flops    62 x    64 x   286           1852071936     100.0%      0.0%      0.0%
 flops    76 x    32 x   281           1858826240     100.0%      0.0%      0.0%
 flops    32 x    39 x   290           1881984000     100.0%      0.0%      0.0%
 flops    76 x    64 x    32           1992294400     100.0%      0.0%      0.0%
 flops    76 x    32 x    64           1992294400     100.0%      0.0%      0.0%
 flops     5 x     5 x    64           2047180800     100.0%      0.0%      0.0%
 flops    32 x    64 x    32           2202009600     100.0%      0.0%      0.0%
 flops    32 x    32 x    64           2202009600     100.0%      0.0%      0.0%
 flops    81 x    39 x   286           2211704352     100.0%      0.0%      0.0%
 flops    90 x    32 x   290           2271744000     100.0%      0.0%      0.0%
 flops    62 x    32 x   286           2315089920     100.0%      0.0%      0.0%
 flops    81 x    64 x   281           2377340928     100.0%      0.0%      0.0%
 flops    14 x     7 x    14           2455671456     100.0%      0.0%      0.0%
 flops    76 x    32 x    32           2490368000     100.0%      0.0%      0.0%
 flops    81 x    64 x    64           2548039680     100.0%      0.0%      0.0%
 flops     5 x     5 x    32           2558976000     100.0%      0.0%      0.0%
 flops    90 x    64 x   286           2688491520     100.0%      0.0%      0.0%
 flops    32 x    32 x    32           2752512000     100.0%      0.0%      0.0%
 flops    32 x    39 x   286           2784038400     100.0%      0.0%      0.0%
 flops    81 x    32 x   281           2971676160     100.0%      0.0%      0.0%
 flops    32 x    64 x   281           2992537600     100.0%      0.0%      0.0%
 flops    76 x    64 x   290           3069378560     100.0%      0.0%      0.0%
 flops    81 x    32 x    64           3185049600     100.0%      0.0%      0.0%
 flops    81 x    64 x    32           3185049600     100.0%      0.0%      0.0%
 flops    14 x    14 x    39           3188923920     100.0%      0.0%      0.0%
 flops    90 x    32 x   286           3360614400     100.0%      0.0%      0.0%
 flops    32 x    32 x   281           3740672000     100.0%      0.0%      0.0%
 flops    76 x    32 x   290           3836723200     100.0%      0.0%      0.0%
 flops    81 x    32 x    32           3981312000     100.0%      0.0%      0.0%
 flops    76 x    64 x   286           4540563456     100.0%      0.0%      0.0%
 flops     5 x    14 x    64           4585512960     100.0%      0.0%      0.0%
 flops    14 x     5 x    64           4586695680     100.0%      0.0%      0.0%
 flops    81 x    64 x   290           4906967040     100.0%      0.0%      0.0%
 flops    76 x    32 x   286           5675704320     100.0%      0.0%      0.0%
 flops     5 x    14 x    32           5731891200     100.0%      0.0%      0.0%
 flops    14 x     5 x    32           5733369600     100.0%      0.0%      0.0%
 flops    81 x    32 x   290           6133708800     100.0%      0.0%      0.0%
 flops    32 x    64 x   290           6176768000     100.0%      0.0%      0.0%
 flops    81 x    64 x   286           7258927104     100.0%      0.0%      0.0%
 flops    32 x    32 x   290           7720960000     100.0%      0.0%      0.0%
 flops    81 x    32 x   286           9073658880     100.0%      0.0%      0.0%
 flops    32 x    64 x   286           9137356800     100.0%      0.0%      0.0%
 flops    14 x    14 x    64          10466211840     100.0%      0.0%      0.0%
 flops    32 x    32 x   286          11421696000     100.0%      0.0%      0.0%
 flops    14 x    14 x    32          13082764800     100.0%      0.0%      0.0%
 flops     5 x    32 x     5          22006560000     100.0%      0.0%      0.0%
 flops    14 x    32 x     5          49682707200     100.0%      0.0%      0.0%
 flops     5 x    32 x    14          49682707200     100.0%      0.0%      0.0%
 flops    14 x    32 x    14         112259266560     100.0%      0.0%      0.0%
 flops inhomo. stacks                273045497040     100.0%      0.0%      0.0%
 flops total                       771.107090E+09     100.0%      0.0%      0.0%
 flops max/rank                     38.029570E+09     100.0%      0.0%      0.0%
 matmuls inhomo. stacks                    246752     100.0%      0.0%      0.0%
 matmuls total                           58880316     100.0%      0.0%      0.0%
 number of processed stacks               1765232     100.0%      0.0%      0.0%
 average stack size                                    33.4       0.0       0.0
 marketing flops                   793.975063E+09
 -------------------------------------------------------------------------------
 # multiplications                            644
 max memory usage/rank              10.492617E+09
 # max total images/rank                        2
 # max 3D layers                                1
 # MPI messages exchanged                  267904
 MPI messages size (bytes):
  total size                        62.579954E+09
  min size                           0.000000E+00
  max size                           1.389752E+06
  average size                     233.590969E+03
 MPI breakdown and total messages size (bytes):
             size <=      128                1168                        0
       128 < size <=     8192               24630                201768960
      8192 < size <=    32768               68970               1329747120
     32768 < size <=   131072               51984               3763339968
    131072 < size <=  4194304              121152              57285095856
   4194304 < size <= 16777216                   0                        0
  16777216 < size                               0                        0
 -------------------------------------------------------------------------------

 *** WARNING in dbcsr_mm.F:294 :: Using a non-square number of MPI ranks ***
 *** might lead to poor performance. Used ranks: 32 Suggested: 36 64     ***

 -------------------------------------------------------------------------------
 -                                                                             -
 -                      DBCSR MESSAGE PASSING PERFORMANCE                      -
 -                                                                             -
 -------------------------------------------------------------------------------
 ROUTINE             CALLS      AVE VOLUME [Bytes]
 MP_Bcast              214                     12.
 MP_Allreduce         3922                     10.
 MP_Alltoall          2245                  43308.
 MP_ISend            19936                 111231.
 MP_IRecv            19936                 108916.
 -------------------------------------------------------------------------------

 -------------------------------------------------------------------------------
 -                                                                             -
 -                                GRID STATISTICS                              -
 -                                                                             -
 -------------------------------------------------------------------------------
 LP    KERNEL             BACKEND                              COUNT     PERCENT
 1     collocate ortho    REF                                2605982      21.45%
 1     integrate ortho    REF                                2557491      21.05%
 0     collocate ortho    REF                                1781887      14.67%
 0     integrate ortho    REF                                1677068      13.80%
 2     integrate ortho    REF                                1406210      11.57%
 2     collocate ortho    REF                                1331201      10.96%
 3     integrate ortho    REF                                 372745       3.07%
 3     collocate ortho    REF                                 312849       2.58%
 4     integrate ortho    REF                                  43397       0.36%
 4     collocate ortho    REF                                  26554       0.22%
 0     collocate general  REF                                  16192       0.13%
 1     integrate general  REF                                  16192       0.13%
 5     integrate ortho    REF                                   1562       0.01%
 -------------------------------------------------------------------------------

 MEMORY| Estimated peak process memory [MiB]                               10049

 -------------------------------------------------------------------------------
 -                                                                             -
 -                         MESSAGE PASSING PERFORMANCE                         -
 -                                                                             -
 -------------------------------------------------------------------------------

 ROUTINE             CALLS      AVE VOLUME [Bytes]
 MP_Group                8
 MP_Bcast             8876               10202803.
 MP_Allreduce         1973                  21075.
 MP_Sync               205
 MP_Alltoall           712               26673311.
 MP_SendRecv           872                  72198.
 MP_ISendRecv         6634                 270319.
 MP_Wait             10484
 MP_comm_split           4
 MP_ISend             3258                 728092.
 MP_IRecv             3256                 728100.
 MP_Recv                30                 592128.
 -------------------------------------------------------------------------------


 -------------------------------------------------------------------------------
 -                                                                             -
 -                           R E F E R E N C E S                               -
 -                                                                             -
 -------------------------------------------------------------------------------
 
 CP2K version 8.2, the CP2K developers group (2021).
 CP2K is freely available from https://www.cp2k.org/ .

 Kuehne,Thomas D.; Iannuzzi,Marcella; Del Ben,Mauro;
 Rybkin,Vladimir V.; Seewald,Patrick; Stein,Frederick; Laino,Teodoro;
 Khaliullin,Rustam Z.; Schuett,Ole; Schiffmann,Florian; Golze,Dorothea;
 Wilhelm,Jan; Chulkov,Sergey; Bani-Hashemian,Mohammad Hossein;
 Weber,Valery; Borstnik,Urban; Taillefumier,Mathieu;
 Jakobovits,Alice Shoshana; Lazzaro,Alfio; Pabst,Hans; Mueller,Tiziano;
 Schade,Robert; Guidon,Manuel; Andermatt,Samuel; Holmberg,Nico;
 Schenter,Gregory K.; Hehn,Anna; Bussy,Augustin; Belleflamme,Fabian;
 Tabacchi,Gloria; Gloess,Andreas; Lass,Michael; Bethune,Iain;
 Mundy,Christopher J.; Plessl,Christian; Watkins,Matt;
 VandeVondele,Joost; Krack,Matthias; Hutter,Juerg. 
 The Journal of Chemical Physics, 152 (19), (2020). 
 CP2K: An electronic structure and molecular dynamics software package -
 Quickstep: Efficient and accurate electronic structure calculations.
 https://doi.org/10.1063/5.0007045

 Schuett, Ole; Messmer, Peter; Hutter, Juerg; VandeVondele, Joost. 
 Electronic Structure Calculations on Graphics Processing Units, John
 Wiley & Sons, Ltd, 173-190 (2016). 
 GPU-Accelerated Sparse Matrix-Matrix Multiplication for
 Linear Scaling Density Functional Theory.
 https://doi.org/10.1002/9781118670712.ch8

 Borstnik, U; VandeVondele, J; Weber, V; Hutter, J. 
 PARALLEL COMPUTING, 40 (5-6), 47-58 (2014). 
 Sparse matrix multiplication: The distributed block-compressed sparse
 row library.
 https://doi.org/10.1016/j.parco.2014.03.012

 Hutter, J; Iannuzzi, M; Schiffmann, F; VandeVondele, J. 
 WIREs Comput Mol Sci., 4 (1), 15-25 (2014). 
 CP2K: atomistic simulations of condensed matter systems.
 https://doi.org/10.1002/wcms.1159

 Marek, A; Blum, V; Johanni, R; Havu, V; Lang, B; Auckenthaler, T;
 Heinecke, A; Bungartz, H; Lederer, H. 
 Journal of Physics: Condensed Matter, 26 (21), (2014). 
 The ELPA library: scalable parallel eigenvalue solutions for
 electronic structure
 theory and computational science.
 https://doi.org/10.1088/0953-8984/26/21/213201

 Guidon, M; Hutter, J; VandeVondele, J. 
 JOURNAL OF CHEMICAL THEORY AND COMPUTATION, 5 (11), 3010-3021 (2009). 
 Robust Periodic Hartree-Fock Exchange for Large-Scale Simulations Using
 Gaussian Basis Sets.
 https://doi.org/10.1021/ct900494g

 Guidon, M; Schiffmann, F; Hutter, J; VandeVondele, J. 
 JOURNAL OF CHEMICAL PHYSICS, 128 (21), 214104 (2008). 
 Ab initio molecular dynamics using hybrid density functionals.
 https://doi.org/10.1063/1.2931945

 Kuhne, TD; Krack, M; Mohamed, FR; Parrinello, M. 
 PHYSICAL REVIEW LETTERS, 98 (6), 066401 (2007). 
 Efficient and accurate Car-Parrinello-like approach to
 Born-Oppenheimer molecular dynamics.
 https://doi.org/10.1103/PhysRevLett.98.066401

 Laino, T; Mohamed, F; Laio, A; Parrinello, M. 
 JOURNAL OF CHEMICAL THEORY AND COMPUTATION, 2 (5), 1370-1378 (2006). 
 An efficient linear-scaling electrostatic coupling for treating
 periodic boundary conditions in QM/MM simulations.
 https://doi.org/10.1021/ct6001169

 Laino, T; Mohamed, F; Laio, A; Parrinello, M. 
 JOURNAL OF CHEMICAL THEORY AND COMPUTATION, 1 (6), 1176-1184 (2005). 
 An efficient real space multigrid QM/MM electrostatic coupling.
 https://doi.org/10.1021/ct050123f

 Krack, M. 
 THEORETICAL CHEMISTRY ACCOUNTS, 114 (1-3), 145-152 (2005). 
 Pseudopotentials for H to Kr optimized for gradient-corrected
 exchange-correlation functionals.
 https://doi.org/10.1007/s00214-005-0655-y

 VandeVondele, J; Krack, M; Mohamed, F; Parrinello, M; Chassaing, T;
 Hutter, J. COMPUTER PHYSICS COMMUNICATIONS, 167 (2), 103-128 (2005). 
 QUICKSTEP: Fast and accurate density functional calculations using a
 mixed Gaussian and plane waves approach.
 https://doi.org/10.1016/j.cpc.2004.12.014

 Frigo, M; Johnson, SG. 
 PROCEEDINGS OF THE IEEE, 93 (2), 216-231 (2005). 
 The design and implementation of FFTW3.
 https://doi.org/10.1109/JPROC.2004.840301

 Kolafa, J. 
 JOURNAL OF COMPUTATIONAL CHEMISTRY, 25 (3), 335-342 (2004). 
 Time-reversible always stable predictor-corrector method for molecular dynamics of polarizable molecules.
 https://doi.org/10.1002/jcc.10385

 VandeVondele, J; Hutter, J. 
 JOURNAL OF CHEMICAL PHYSICS, 118 (10), 4365-4369 (2003). 
 An efficient orbital transformation method for electronic structure
 calculations.
 https://doi.org/10.1063/1.1543154

 Hartwigsen, C; Goedecker, S; Hutter, J. 
 PHYSICAL REVIEW B, 58 (7), 3641-3662 (1998). 
 Relativistic separable dual-space Gaussian pseudopotentials from H to Rn.
 https://doi.org/10.1103/PhysRevB.58.3641

 Lippert, G; Hutter, J; Parrinello, M. 
 MOLECULAR PHYSICS, 92 (3), 477-487 (1997). 
 A hybrid Gaussian and plane wave density functional scheme.
 https://doi.org/10.1080/002689797170220

 Goedecker, S; Teter, M; Hutter, J. 
 PHYSICAL REVIEW B, 54 (3), 1703-1710 (1996). 
 Separable dual-space Gaussian pseudopotentials.
 https://doi.org/10.1103/PhysRevB.54.1703

 ESSMANN, U; PERERA, L; BERKOWITZ, ML; DARDEN, T; LEE, H; PEDERSEN, LG. 
 JOURNAL OF CHEMICAL PHYSICS, 103 (19), 8577-8593 (1995). 
 A SMOOTH PARTICLE MESH EWALD METHOD.
 https://doi.org/10.1063/1.470117

 BLOCHL, PE. 
 JOURNAL OF CHEMICAL PHYSICS, 103 (17), 7422-7428 (1995). 
 ELECTROSTATIC DECOUPLING OF PERIODIC IMAGES OF PLANE-WAVE-EXPANDED
 DENSITIES AND DERIVED ATOMIC POINT CHARGES.
 https://doi.org/10.1063/1.470314

 BECKE, AD. PHYSICAL REVIEW A, 38 (6), 3098-3100 (1988). 
 DENSITY-FUNCTIONAL EXCHANGE-ENERGY APPROXIMATION WITH CORRECT
 ASYMPTOTIC-BEHAVIOR.
 https://doi.org/10.1103/PhysRevA.38.3098

 LEE, CT; YANG, WT; PARR, RG. 
 PHYSICAL REVIEW B, 37 (2), 785-789 (1988). 
 DEVELOPMENT OF THE COLLE-SALVETTI CORRELATION-ENERGY FORMULA INTO A
 FUNCTIONAL OF THE ELECTRON-DENSITY.
 https://doi.org/10.1103/PhysRevB.37.785

 VOSKO, SH; WILK, L; NUSAIR, M. 
 CANADIAN JOURNAL OF PHYSICS, 58 (8), 1200-1211 (1980). 
 ACCURATE SPIN-DEPENDENT ELECTRON LIQUID CORRELATION ENERGIES FOR LOCAL
 SPIN-DENSITY CALCULATIONS - A CRITICAL ANALYSIS.
 https://doi.org/10.1139/p80-159


 -------------------------------------------------------------------------------
 -                                                                             -
 -                                T I M I N G                                  -
 -                                                                             -
 -------------------------------------------------------------------------------
 SUBROUTINE                       CALLS  ASD         SELF TIME        TOTAL TIME
                                MAXIMUM       AVERAGE  MAXIMUM  AVERAGE  MAXIMUM
 CP2K                                 1  1.0    0.468    0.515  386.767  386.767
 qs_mol_dyn_low                       1  2.0    0.005    0.006  323.710  325.145
 qs_forces                            2  3.5    0.001    0.001  266.993  266.993
 rebuild_ks_matrix                   34  8.7    0.000    0.000  257.579  257.609
 qs_ks_build_kohn_sham_matrix        34  9.7    0.006    0.006  257.579  257.609
 hfx_ks_matrix                       34 10.7    0.002    0.002  245.509  245.515
 qs_energies                          2  4.5    0.000    0.001  244.361  244.362
 scf_env_do_scf                       2  5.5    0.000    0.000  242.939  242.939
 qs_ks_update_qs_env                 34  7.9    0.000    0.001  235.019  235.047
 integrate_four_center               34 11.7    1.718    2.210  233.301  233.307
 velocity_verlet                      1  3.0    0.002    0.002  222.332  222.353
 integrate_four_center_main          34 12.7    1.662    4.657  195.394  220.273
 integrate_four_center_bin         2209 13.7  193.733  218.575  193.733  218.575
 scf_env_do_scf_inner_loop           32  6.9    0.001    0.002  160.094  160.104
 init_scf_loop                        2  6.5    0.003    0.006   82.833   82.833
 qmmm_env_create                      1  2.0    6.050    6.106   61.044   61.048
 fist_init                            1  3.0    0.001    0.002   53.134   53.138
 mp_sync                            205 13.2   35.268   51.416   35.268   51.416
 qmmm_el_coupling                     2  3.5    0.000    0.000   38.096   38.103
 qmmm_elec_with_gaussian              2  4.5    0.001    0.002   38.095   38.102
 qmmm_elec_with_gaussian_low          2  5.5    0.000    0.000   32.737   37.702
 force_field_control                  1  4.0    0.000    0.001   31.153   31.938
 rdparm_amber_8                       2  6.5   23.077   23.418   29.338   29.418
 qmmm_elec_gaussian_low_G             2  6.5   26.919   28.144   26.919   28.144
 qs_ks_update_qs_env_forces           2  4.5    0.000    0.000   22.576   22.578
 topology_control                     1  4.0    0.001    0.001   21.127   21.186
 force_field_pack                     1  5.0    0.007    0.008   17.389   18.217
 connectivity_control                 2  4.0    0.000    0.000   16.238   16.250
 read_connectivity_amber              1  6.0    0.000    0.000   15.642   15.644
 qmmm_forces                          2  3.5    0.004    0.005   15.502   15.503
 qmmm_forces_with_gaussian            2  4.5    0.003    0.004   11.449   15.444
 qmmm_force_with_gaussian_low         2  5.5    0.000    0.000   10.930   14.925
 read_force_field_amber               1  5.0    0.006    0.006   13.701   13.782
 derivatives_four_center              2  8.5    0.014    0.246   12.199   12.200
 force_field_pack_ub                  1  6.0   11.021   11.925   11.021   11.925
 derivatives_four_center_main         2  9.5    0.032    0.065   11.609   11.609
 derivatives_four_center_bin        283 10.5   11.389   11.542   11.389   11.542
 qmmm_elec_gaussian_low_R             2  6.5    0.000    0.000    5.818    9.615
 qmmm_elec_with_gaussian_LG           2  7.5    5.818    9.615    5.818    9.615
 qmmm_forces_gaussian_low_R           2  6.5    0.000    0.000    5.947    8.788
 qmmm_forces_with_gaussian_LG         2  7.5    5.947    8.788    5.947    8.788
 pw_transfer                        702 12.3    0.049    0.055    7.672    7.972
 fft_wrap_pw1pw2                    590 13.4    0.006    0.006    7.526    7.826
 fft_wrap_pw1pw2_150                378 14.6    0.753    0.769    7.173    7.478
 qs_vxc_create                       34 10.7    0.001    0.001    6.238    6.239
 xc_vxc_pw_create                    34 11.7    0.170    0.176    6.238    6.238
 fft3d_ps                           590 15.4    2.482    2.560    5.898    6.223
 qmmm_forces_gaussian_low_G           2  6.5    4.984    6.137    4.984    6.137
 parser_read_line               1186304  7.6    0.206    0.223    5.316    5.604
 parser_read_line_low              1198  8.5    0.168    3.707    5.110    5.392
 mp_sum_dm                          258  4.8    4.494    5.350    4.494    5.350
 broadcast_input_information       1198  9.5    0.003    0.003    4.942    5.338
 qs_rho_update_rho                   34  7.9    0.000    0.000    5.271    5.274
 calculate_rho_elec                  34  8.9    0.095    0.096    5.270    5.274
 mp_bcast_i                        4818 10.5    3.851    4.457    3.851    4.457
 force_field_pack_splines             2  6.0    0.010    0.010    3.305    3.419
 get_nonbond_storage                  2  7.0    0.141    0.145    3.119    3.232
 xc_rho_set_and_dset_create          34 12.7    0.206    0.221    3.034    3.201
 topology_coordinate_pack             2  4.0    0.000    0.000    3.078    3.126
 set_potparm_index                  508  8.0    0.208    0.210    2.978    3.089
 topology_coordinate_pack_11          2  5.0    2.925    2.975    2.925    2.975
 mp_alltoall_z22v                   590 17.4    2.658    2.948    2.658    2.948
 grid_collocate_task_list            34  9.9    2.522    2.931    2.522    2.931
 density_rs2pw                       34  9.9    0.001    0.002    2.588    2.903
 init_genpot                        510  9.0    2.780    2.890    2.780    2.890
 rs_pw_transfer                     284 12.0    0.005    0.005    2.298    2.609
 sum_up_and_integrate                34 10.7    0.028    0.029    2.592    2.601
 integrate_v_rspace                  34 11.7    0.001    0.001    2.564    2.572
 qs_ks_ddapc                         34 10.7    0.001    0.001    2.248    2.257
 hfx_load_balance                     2 11.5    0.002    0.002    2.155    2.191
 md_output                            1  3.0    0.000    0.000    0.732    2.166
 powell_optimize                1331636 13.0    2.011    2.054    2.011    2.054
 dbcsr_multiply_generic             644 12.9    0.020    0.021    1.904    1.940
 integrate_four_center_load          34 12.7    0.000    0.000    1.898    1.934
 yz_to_x                            276 15.8    0.323    0.336    1.655    1.933
 potential_pw2rs                     34 12.7    0.004    0.004    1.852    1.861
 x_to_yz                            314 16.8    0.423    0.475    1.749    1.799
 write_restart                        1  4.0    0.036    1.140    0.720    1.797
 qs_scf_new_mos                      32  7.9    0.000    0.000    1.723    1.747
 qs_scf_loop_do_ot                   32  8.9    0.000    0.000    1.723    1.746
 coordinate_control                   1  5.0    0.001    0.001    1.742    1.745
 coordinate_control_READ_COORDI       1  6.0    0.000    0.000    1.741    1.744
 read_coordinate_pdb                  1  7.0    1.229    1.253    1.740    1.744
 ot_scf_mini                         32  9.9    0.001    0.001    1.624    1.642
 cp_ddapc_apply_CD                   34 11.7    0.002    0.030    1.609    1.609
 fist_calc_energy_force               2  3.5    0.011    0.012    1.580    1.585
 calc_screening_functions             1 12.0    0.424    0.428    1.506    1.532
 mp_max_l                            26  3.5    1.432    1.504    1.432    1.504
 eval_pw_TabLR                        3  3.0    0.408    1.402    1.460    1.461
 mp_waitany                        3256 13.8    1.149    1.410    1.149    1.410
 rdparm_amber_8_forcefield            1  7.0    0.040    0.042    1.374    1.396
 calc_pair_dist_radii                 1 12.0    0.372    0.375    1.301    1.323
 mp_comm_dup                         21  5.0    0.912    1.275    0.912    1.275
 mp_bcast_am                       1198 10.5    0.946    1.209    1.070    1.218
 multiply_cannon                    644 13.9    0.032    0.051    1.096    1.199
 post_process_torsions_info           2  8.0    1.162    1.184    1.162    1.184
 rs_pw_transfer_RS2PW_150            36 11.8    0.262    0.303    0.868    1.179
 ot_mini                             32 10.9    0.000    0.000    1.157    1.177
 prepare_preconditioner               2  7.5    0.000    0.000    1.169    1.173
 fist_init_subsys                     1  4.0    0.000    0.001    0.853    1.166
 ewald_pw_init                        1  5.0    0.000    0.000    0.845    1.157
 mp_waitall_1                     48442 16.6    0.876    1.081    0.876    1.081
 make_preconditioner                  2  8.5    0.000    0.001    1.072    1.073
 multiply_cannon_loop               644 14.9    0.029    0.031    0.948    1.050
 hfx_load_balance_bin                 2 12.5    1.028    1.047    1.028    1.047
 hfx_load_balance_count               2 12.5    1.030    1.047    1.030    1.047
 mp_sum_dm3                           3  4.0    0.995    1.029    0.995    1.029
 make_full_all                        2  9.5    0.001    0.001    1.009    1.009
 pw_integral_ab                     986  7.2    0.681    0.698    0.839    0.918
 qs_energies_init_hamiltonians        2  5.5    0.000    0.000    0.884    0.884
 qs_env_update_s_mstruct              2  6.5    0.000    0.000    0.846    0.850
 mp_bcast_im                        363  9.5    0.805    0.836    0.805    0.836
 list_control                         2  4.5    0.014    0.015    0.814    0.823
 build_fist_neighbor_lists            1  5.0    0.000    0.000    0.797    0.808
 md_write_output                      2  3.5    0.002    0.044    0.033    0.800
 multiply_cannon_multrec           5152 15.9    0.584    0.793    0.585    0.795
 force_field_unique_tors              1  6.0    0.780    0.795    0.780    0.795
 write_trajectory                     8  4.5    0.008    0.016    0.032    0.756
 write_particle_coordinates           2  5.5    0.024    0.753    0.024    0.753
 rs_pw_transfer_PW2RS_150            36 14.4    0.272    0.293    0.709    0.744
 modify_hartree_pot                  34 12.7    0.696    0.741    0.696    0.741
 cp_ddapc_init                        2  7.5    0.000    0.000    0.722    0.726
 cp_ddapc_create                      2  8.5    0.002    0.002    0.722    0.726
 update_input                         1  5.0    0.000    0.000    0.684    0.716
 ddapc_eval_AmI                       2  9.5    0.061    0.063    0.702    0.705
 build_neighbor_lists                 1  6.0    0.695    0.704    0.695    0.704
 xc_functional_eval                 136 13.7    0.001    0.001    0.543    0.689
 get_ddapc                           34 12.7    0.001    0.001    0.673    0.688
 qs_ot_get_derivative                32 11.9    0.000    0.000    0.661    0.679
 update_subsys                        1  6.0    0.000    0.000    0.663    0.674
 grid_integrate_task_list            34 12.7    0.269    0.664    0.269    0.664
 mp_alltoall_d11v                   517 13.6    0.509    0.659    0.509    0.659
 section_coord_val_set                1  7.0    0.641    0.651    0.641    0.651
 build_A_matrix                       2 10.5    0.581    0.630    0.581    0.630
 cp_fm_diag_elpa                      6 10.8    0.000    0.000    0.621    0.623
 cp_fm_diag_elpa_base                 6 11.7    0.544    0.609    0.549    0.616
 rs_gather_matrices                  34 12.7    0.010    0.011    0.437    0.591
 connectivity_control_check_ele       2  5.0    0.512    0.524    0.512    0.524
 make_m2s                          1288 13.9    0.012    0.013    0.492    0.519
 init_scf_run                         2  5.5    0.000    0.000    0.517    0.517
 scf_env_initial_rho_setup            2  6.5    0.000    0.000    0.517    0.517
 pw_restrict_s3                       6  5.5    0.117    0.123    0.515    0.516
 pw_copy                            451 12.7    0.496    0.501    0.496    0.501
 ot_diis_step                        32 11.9    0.002    0.004    0.491    0.491
 force_field_pack_bend                1  6.0    0.468    0.484    0.468    0.484
 force_nonbond                        2  4.5    0.449    0.473    0.449    0.473
 apply_preconditioner_dbcsr          34 12.9    0.000    0.000    0.453    0.467
 apply_all                           34 13.9    0.002    0.003    0.453    0.467
 qs_ot_get_derivative_taylor         32 12.9    0.001    0.001    0.431    0.449
 update_particle_set                  2  4.0    0.003    0.003    0.417    0.438
 pw_scatter_p                       314 15.8    0.427    0.436    0.427    0.436
 pw_gather_p                        276 14.8    0.423    0.432    0.423    0.432
 pw_poisson_solve                    36 10.4    0.155    0.156    0.421    0.429
 integrate_four_center_getP          34 12.7    0.123    0.145    0.413    0.414
 multiply_cannon_metrocomm3        5152 15.9    0.007    0.008    0.185    0.411
 get_ddapc-charges                   34 13.7    0.019    0.020    0.408    0.409
 qmmm_elec_with_gaussian:spline       2  5.5    0.000    0.000    0.389    0.394
 pw_prolongate_s3                     6  6.5    0.092    0.098    0.389    0.394
 build_b_vector                      34 14.7    0.361    0.386    0.361    0.386
 mp_sum_l                          3338 13.1    0.248    0.379    0.248    0.379
 pw_derive                          210 13.0    0.370    0.375    0.370    0.375
 mp_sum_lv                          224  2.3    0.191    0.374    0.191    0.374
 make_images                       1288 14.9    0.070    0.081    0.349    0.369
 force_field_unique_ub                1  6.0    0.343    0.351    0.343    0.351
 vwn_lda_eval                        34 14.7    0.260    0.343    0.260    0.343
 force_field_unique_bend              1  6.0    0.333    0.337    0.333    0.337
 mp_sum_d                          2062  8.5    0.276    0.329    0.276    0.329
 rs_pw_transfer_PW2RS_40             34 14.7    0.084    0.093    0.279    0.326
 integrate_four_center_dist_KS       34 12.7    0.070    0.080    0.317    0.317
 force_field_pack_nonbond14           1  6.0    0.304    0.311    0.304    0.311
 init_cube_info                       8  5.5    0.280    0.292    0.280    0.292
 qs_ks_qmmm_create                    1  3.0    0.000    0.000    0.279    0.292
 force_field_pack_nonbond             1  6.0    0.277    0.283    0.277    0.283
 cp_fm_cholesky_reduce                2 10.5    0.281    0.282    0.281    0.282
 add_fine2coarse                      6  6.5    0.169    0.255    0.268    0.269
 force_field_pack_bond                1  6.0    0.259    0.269    0.259    0.269
 derivatives_four_center_load         2  9.5    0.000    0.001    0.267    0.267
 get_ddapc-forces                     2 10.5    0.061    0.063    0.232    0.247
 mp_alltoall_i                       12  9.0    0.135    0.236    0.135    0.236
 spme_evaluate                        2  4.5    0.035    0.036    0.229    0.230
 mp_irecv_dv                      13096 16.4    0.122    0.224    0.122    0.224
 mp_isendrecv_dv                   6386 14.0    0.089    0.213    0.089    0.213
 rs_pw_transfer_RS2PW_40             34 11.9    0.067    0.072    0.176    0.213
 multiply_cannon_metrocomm4        4508 15.9    0.008    0.008    0.109    0.204
 xb88_lda_eval                       34 14.7    0.173    0.203    0.173    0.203
 rdparm_amber_8_connectivity          1  8.0    0.139    0.140    0.193    0.195
 fft_wrap_pw1pw2_10                 144 13.9    0.003    0.004    0.180    0.188
 add_fine2coarse_comm                 6  7.5    0.001    0.001    0.100    0.185
 spline_nonbond_control               2  7.0    0.166    0.168    0.177    0.178
 qmmm_calculate_energy               34 10.7    0.001    0.001    0.168    0.178
 fft_wrap_pw1pw2_40                  68 14.3    0.016    0.018    0.168    0.178
 qs_ot_get_p                         34 10.7    0.000    0.000    0.158    0.177
 wfi_extrapolate                      2  7.5    0.000    0.000    0.175    0.175
 mp_bcast_iv                       2610 10.3    0.144    0.171    0.144    0.171
 pw_axpy                            720  8.5    0.167    0.170    0.167    0.170
 calculate_first_density_matrix       1  7.0    0.000    0.001    0.169    0.169
 qs_init_subsys                       1  3.0    0.001    0.002    0.168    0.168
 dbcsr_make_dense_low              2212 16.0    0.008    0.009    0.125    0.164
 qs_env_setup                         1  4.0    0.000    0.000    0.157    0.163
 qs_env_rebuild_pw_env                5  5.0    0.000    0.000    0.156    0.163
 pw_env_rebuild                       1  6.0    0.001    0.002    0.156    0.162
 force_field_pack_tors                1  6.0    0.158    0.160    0.158    0.160
 subspace_eigenvalues_ks_dbcsr        4  9.0    0.000    0.000    0.148    0.152
 make_dense_data                   2212 17.0    0.090    0.126    0.114    0.152
 make_images_data                  1288 15.9    0.008    0.010    0.131    0.149
 rs_pw_transfer_RS2PW_10             70 11.7    0.028    0.029    0.145    0.149
 pw_grid_setup                        8  5.4    0.001    0.001    0.146    0.146
 pw_grid_setup_internal               8  6.4    0.004    0.004    0.145    0.145
 add_coarse2fine                      6  7.5    0.083    0.088    0.137    0.145
 dbcsr_make_images_dense           1124 15.2    0.007    0.007    0.114    0.140
 build_der_A_matrix_rows              6 11.5    0.127    0.137    0.127    0.137
 create_qs_kind_set                   1  3.0    0.000    0.000    0.136    0.136
 read_qs_kind                         6  4.0    0.026    0.034    0.136    0.136
 lyp_lda_eval                        34 14.7    0.098    0.131    0.098    0.131
 qs_ot_get_orbitals                  32 10.9    0.000    0.000    0.127    0.130
 hybrid_alltoall_any               1317 16.8    0.010    0.026    0.111    0.129
 rs_pw_transfer_PW2RS_10             74 14.0    0.040    0.045    0.117    0.127
 calculate_dm_sparse                 34  9.8    0.000    0.000    0.107    0.116
 make_basis_sm                        2  9.0    0.000    0.000    0.113    0.113
 pw_grid_sort                         8  7.4    0.073    0.073    0.109    0.111
 sort_neighbor_lists                  1  6.0    0.102    0.106    0.102    0.106
 mp_sendrecv_dm2                    872  6.9    0.074    0.101    0.074    0.101
 rs_grid_zero                        80 14.5    0.098    0.101    0.098    0.101
 make_images_sizes                 1288 15.9    0.001    0.001    0.087    0.101
 mp_alltoall_i44                   1288 16.9    0.087    0.100    0.087    0.100
 cp_dbcsr_syevd                       4 10.0    0.000    0.001    0.098    0.099
 calculate_rho_core                   2  7.5    0.010    0.013    0.093    0.096
 cp_fm_cholesky_decompose             4 10.2    0.093    0.093    0.093    0.093
 mp_max_i                           601  1.8    0.043    0.093    0.043    0.093
 force_field_unique_bond              1  6.0    0.080    0.092    0.080    0.092
 mp_irecv_dm3                       888 13.8    0.048    0.092    0.048    0.092
 cp_fm_redistribute_end               6 11.8    0.067    0.090    0.068    0.090
[...]
 cp_dbcsr_cholesky_decompose          2 12.5    0.003    0.003    0.004    0.004
 get_atomic_block_maps                2 12.5    0.001    0.002    0.003    0.004
 cp_fm_triangular_multiply            2 10.0    0.004    0.004    0.004    0.004
 tree_to_linear_d                   124 15.1    0.003    0.004    0.003    0.004
 create_local_tasks                   2 10.5    0.001    0.002    0.003    0.004
 mp_bcast_av                        355  1.0    0.002    0.002    0.004    0.004
 bonded_correct_gaussian              2  4.5    0.004    0.004    0.004    0.004
 mp_alltoall_i11v                   377 14.0    0.003    0.004    0.003    0.004
 dbcsr_data_copy_aa2                403 15.4    0.002    0.004    0.002    0.004
 dbcsr_fill_wm_from_matrix          130 14.3    0.002    0.003    0.002    0.004
 dbcsr_distribution_new            3422 14.5    0.003    0.004    0.003    0.004
 copy_fm_to_dbcsr_bc                 27 11.4    0.001    0.001    0.003    0.004
 dbcsr_switch_data_area            4961 16.9    0.002    0.003    0.003    0.004
 force_field_unique_opbend            1  6.0    0.003    0.004    0.003    0.004
 dbcsr_reserve_blocks               179 14.7    0.003    0.003    0.003    0.003
 hfx_load_balance_redist              2 12.5    0.002    0.002    0.003    0.003
 dbcsr_add_on_diag                   68 12.7    0.000    0.000    0.003    0.003
 topology_connectivity_pack_5         2  5.0    0.003    0.003    0.003    0.003
 cp_fm_create                        51 10.4    0.003    0.003    0.003    0.003
 pw_scale                            34 11.7    0.003    0.003    0.003    0.003
 transpose_index_local              262 14.9    0.001    0.001    0.003    0.003
 pw_grid_distribute                   8  7.4    0.003    0.003    0.003    0.003
 build_neighbor_lists_sap_ppnl        2  7.5    0.003    0.003    0.003    0.003
 rs_grid_create_descriptor            5  6.8    0.000    0.000    0.002    0.003
 mp_sum_i                             6  4.7    0.001    0.003    0.001    0.003
 fill_hash_tables                   644 16.9    0.003    0.003    0.003    0.003
 mp_recv_dv                          30 10.7    0.000    0.003    0.000    0.003
 merge_index                       1509 16.5    0.003    0.003    0.003    0.003
 mp_cart_create                      38 11.4    0.002    0.003    0.002    0.003
 cp_dbcsr_alloc_block_from_nbl       16  7.2    0.001    0.001    0.003    0.003
 pw_poisson_rebuild                  38 11.1    0.002    0.003    0.002    0.003
 mp_rank_compare                    590 16.4    0.002    0.003    0.002    0.003
 copy_dbcsr_to_fm_bc                 29 11.2    0.002    0.002    0.002    0.003
 build_subspace                      34 13.7    0.000    0.000    0.002    0.002
 topology_coordinate_pack_3           2  5.0    0.002    0.002    0.002    0.002
 mp_alltoall_l11v                     2 11.5    0.002    0.002    0.002    0.002
 dbcsr_make_dbcsr_index            4043 17.0    0.002    0.002    0.002    0.002
 mp_max_iv                            2 13.5    0.001    0.002    0.001    0.002
 mp_environ_l                      1841 12.9    0.002    0.002    0.002    0.002
 mp_comm_compare                    599 16.3    0.002    0.002    0.002    0.002
 fix_atom_control                     2  3.5    0.002    0.002    0.002    0.002
 dbcsr_scale_anytype                818 15.2    0.001    0.002    0.002    0.002
 pw_pool_create_pw                 1122 11.7    0.001    0.001    0.002    0.002
 multiply_cannon_multrec_finali     644 16.9    0.000    0.001    0.002    0.002
 dbcsr_scale_d                       66 13.8    0.000    0.000    0.002    0.002
 mp_environ_c                       590 16.4    0.002    0.002    0.002    0.002
 dbcsr_reserve_all_blocks           163 14.4    0.000    0.000    0.002    0.002
 mp_cart_sub                         60 12.2    0.002    0.002    0.002    0.002
 dbcsr_sort_data                    236 15.8    0.001    0.002    0.001    0.002
 rs_grid_create                      17  6.8    0.001    0.001    0.001    0.002
 mp_wait                              2  5.5    0.000    0.002    0.000    0.002
 dbcsr_mm_multrec_finalize          644 17.9    0.001    0.001    0.001    0.002
 dbcsr_scale_by_vector_anytype       32 10.9    0.001    0.002    0.001    0.002
 topology_connectivity_pack_6         2  5.0    0.002    0.002    0.002    0.002
 pw_create                          243 11.2    0.001    0.002    0.001    0.002
 pw_pool_give_back_pw              1249 11.8    0.001    0.001    0.001    0.001
 create_col_vec_from_matrix          68 13.7    0.000    0.000    0.001    0.001
 build_neighbor_lists_sab_core        2  7.5    0.001    0.001    0.001    0.001
 topology_coordinate_pack_7b          2  5.0    0.001    0.001    0.001    0.001
 dbcsr_index_prune_deleted         1686 16.2    0.001    0.001    0.001    0.001
 scf_c_write_parameters               1  4.0    0.000    0.001    0.000    0.001
 topology_coordinate_pack_10          2  5.0    0.000    0.001    0.000    0.001
 compute_evals                       34 13.7    0.001    0.001    0.001    0.001
 topology_constraint_pack             1  5.0    0.000    0.000    0.000    0.001
 topology_constraint_pack_1           1  6.0    0.000    0.001    0.000    0.001
 build_neighbor_lists_sab_all         2  7.5    0.001    0.001    0.001    0.001
 optimize_load_list                   4 11.5    0.000    0.000    0.001    0.001
 build_neighbor_lists_sab_orb         2  7.5    0.001    0.001    0.001    0.001
 qs_env_rebuild_rho                   2  7.5    0.000    0.000    0.001    0.001
 qs_rho_rebuild                       2  8.5    0.000    0.000    0.001    0.001
 topology_connectivity_pack_13_       2  5.0    0.001    0.001    0.001    0.001
 dbcsr_make_index_local_row        1932 14.9    0.001    0.001    0.001    0.001
 mp_sum_im                           10  8.6    0.001    0.001    0.001    0.001
 dbcsr_get_local_cols              1170 14.6    0.001    0.001    0.001    0.001
 mp_bcast_i3                          4 12.5    0.000    0.001    0.000    0.001
 dbcsr_get_data_size_used          1598 15.5    0.001    0.001    0.001    0.001
 mp_sum_root_iv                       4 12.5    0.000    0.001    0.000    0.001
 mp_allgatherv_iv                     2 13.5    0.001    0.001    0.001    0.001
 load_balance_replicated              2 10.5    0.000    0.000    0.001    0.001
 dbcsr_matrix_vector_mult_local      34 15.7    0.000    0.001    0.001    0.001
 mp_isendrecv_lv                    248 13.5    0.000    0.001    0.000    0.001
 pw_poisson_set                       3  6.0    0.001    0.001    0.001    0.001
 dbcsr_get_local_rows              1170 14.6    0.001    0.001    0.001    0.001
 mpools_rebuild_fm_pools              1  5.0    0.000    0.001    0.001    0.001
 ot_scf_read_input                    2  7.5    0.000    0.000    0.000    0.001
 ot_readwrite_input                   2  8.5    0.000    0.001    0.000    0.001
 force_field_pack_radius              1  6.0    0.001    0.001    0.001    0.001
 topology_coordinate_pack_7a          2  5.0    0.001    0.001    0.001    0.001
 init_interaction_radii               1  4.0    0.000    0.001    0.000    0.001
 create_replicated_col_vec_from      34 13.7    0.000    0.000    0.001    0.001
 mp_max_r                             1  2.0    0.001    0.001    0.001    0.001
 create_replicated_row_vec_from      34 13.7    0.000    0.000    0.001    0.001
 topology_connectivity_pack_1         2  5.0    0.001    0.001    0.001    0.001
 qs_scf_write_mos                    34  7.9    0.000    0.001    0.000    0.001
 dbcsr_mm_sched_init                644 16.9    0.000    0.000    0.000    0.001
 mp_allgather_l                      26 12.4    0.000    0.001    0.000    0.001
 offload_create_buffer               21  8.1    0.000    0.000    0.000    0.000
 create_fast_row_vec_access          34 15.7    0.000    0.000    0.000    0.000
 fist_neighbor_init                   1  7.0    0.000    0.000    0.000    0.000
 qs_scf_loop_print                   32  7.9    0.000    0.000    0.000    0.000
 scf_post_calculation_gpw             2  5.5    0.000    0.000    0.000    0.000
 create_fast_row_vec_access_d        34 16.7    0.000    0.000    0.000    0.000
 topology_generate_molecule_PAR       2  6.0    0.000    0.000    0.000    0.000
 pw_grid_allocate                     8  7.4    0.000    0.000    0.000    0.000
 topology_connectivity_pack_12_       2  5.0    0.000    0.000    0.000    0.000
 topology_connectivity_pack_7         2  5.0    0.000    0.000    0.000    0.000
 dbcsr_mm_sched_finalize            644 18.9    0.000    0.000    0.000    0.000
 wfs_update                           2  5.5    0.000    0.000    0.000    0.000
 topology_connectivity_pack_11_       2  5.0    0.000    0.000    0.000    0.000
 cp_fm_to_fm_matrix                   7  9.1    0.000    0.000    0.000    0.000
 hfx_create_basis_types               8  4.0    0.000    0.000    0.000    0.000
 mp_comm_free                       123  9.7    0.000    0.000    0.000    0.000
 topology_connectivity_pack_3         2  5.0    0.000    0.000    0.000    0.000
 dbcsr_get_global_row_map           644 13.9    0.000    0.000    0.000    0.000
 create_fast_col_vec_access          34 15.7    0.000    0.000    0.000    0.000
 write_available_results              2  6.5    0.000    0.000    0.000    0.000
 create_fast_col_vec_access_d        34 16.7    0.000    0.000    0.000    0.000
 topology_connectivity_pack_8         2  5.0    0.000    0.000    0.000    0.000
 qmmm_coordinate_control              1  6.0    0.000    0.000    0.000    0.000
 qs_efield_local_operator            34 10.7    0.000    0.000    0.000    0.000
 topology_connectivity_pack_1.1       2  5.0    0.000    0.000    0.000    0.000
 cleanup_scf_loop                     2  7.5    0.000    0.000    0.000    0.000
 mp_comm_split                        4 13.0    0.000    0.000    0.000    0.000
 offload_free_buffer                 19  5.3    0.000    0.000    0.000    0.000
 qs_efield_berry_phase               34 10.7    0.000    0.000    0.000    0.000
 dbcsr_get_global_col_map           644 13.9    0.000    0.000    0.000    0.000
 mp_sum_partial_im                    4 12.5    0.000    0.000    0.000    0.000
 distribute_molecules_2d              1  5.0    0.000    0.000    0.000    0.000
 qs_scf_ensure_mos                    2  5.5    0.000    0.000    0.000    0.000
 qs_scf_ensure_work_matrices          2  5.5    0.000    0.000    0.000    0.000
 write_mo_free_results                2  7.5    0.000    0.000    0.000    0.000
 dbcsr_mm_hostdrv_init              644 17.9    0.000    0.000    0.000    0.000
 cp_fm_to_fm_columns                  2 10.5    0.000    0.000    0.000    0.000
 force_field_pack_charge              1  6.0    0.000    0.000    0.000    0.000
 pw_hfx                              34 11.7    0.000    0.000    0.000    0.000
 topology_set_atm_mass                1  4.0    0.000    0.000    0.000    0.000
 grid_free_task_list                  1  2.0    0.000    0.000    0.000    0.000
 mp_allgatherv_lv                     1 15.0    0.000    0.000    0.000    0.000
 topology_coordinate_pack_4           2  5.0    0.000    0.000    0.000    0.000
 force_field_pack_shell               1  6.0    0.000    0.000    0.000    0.000
 write_mo_dependent_results           2  7.5    0.000    0.000    0.000    0.000
 qs_scf_print_scf_summary             2  7.5    0.000    0.000    0.000    0.000
 set_mo_occupation_1                 35  9.7    0.000    0.000    0.000    0.000
 mp_min_lv                            5  8.8    0.000    0.000    0.000    0.000
 qs_ks_did_change                    36  7.9    0.000    0.000    0.000    0.000
 ewald_pw_release                     4  3.5    0.000    0.000    0.000    0.000
 atom2d_build                         2  7.5    0.000    0.000    0.000    0.000
 scf_env_release                      3  4.0    0.000    0.000    0.000    0.000
 mp_sum_r                             1  2.0    0.000    0.000    0.000    0.000
 create_destination_list              4 11.5    0.000    0.000    0.000    0.000
 balance_global_list                  4 12.5    0.000    0.000    0.000    0.000
 qs_scf_post_charges                  2  6.5    0.000    0.000    0.000    0.000
 spline_env_create                    2  8.0    0.000    0.000    0.000    0.000
 cp_ddapc_apply_RF                   34 11.7    0.000    0.000    0.000    0.000
 destroy_preconditioner               2  5.5    0.000    0.000    0.000    0.000
 write_qs_particle_coordinates        3  3.7    0.000    0.000    0.000    0.000
 mp_max_lv                            5  8.8    0.000    0.000    0.000    0.000
 scf_c_read_parameters                1  4.0    0.000    0.000    0.000    0.000
 write_structure_data                 4  4.5    0.000    0.000    0.000    0.000
 force_field_pack_pol                 1  6.0    0.000    0.000    0.000    0.000
 cp_fm_release                       56  9.4    0.000    0.000    0.000    0.000
 dump_info_core_hamiltonian           4  6.5    0.000    0.000    0.000    0.000
 qs_scf_post_moments                  2  6.5    0.000    0.000    0.000    0.000
 topology_generate_onfo               1  4.0    0.000    0.000    0.000    0.000
 make_basic_distribution              1  6.0    0.000    0.000    0.000    0.000
 scf_env_create                       1  5.0    0.000    0.000    0.000    0.000
 read_qs_section                      1  4.0    0.000    0.000    0.000    0.000
 mp_isend_dm2                         2  5.5    0.000    0.000    0.000    0.000
 wfn_mix                              2  6.5    0.000    0.000    0.000    0.000
 print_atomic_charges                34 14.7    0.000    0.000    0.000    0.000
 hfx_release_basis_types              8  2.0    0.000    0.000    0.000    0.000
 mp_cart_coords                     160  9.8    0.000    0.000    0.000    0.000
 force_field_pack_damp                1  6.0    0.000    0.000    0.000    0.000
 mp_min_i                             3  6.0    0.000    0.000    0.000    0.000
 outer_loop_gradient                  2  7.5    0.000    0.000    0.000    0.000
 resp_fit                             2  7.5    0.000    0.000    0.000    0.000
 calculate_ecore_self                 4  5.5    0.000    0.000    0.000    0.000
 qs_scf_post_xray                     2  6.5    0.000    0.000    0.000    0.000
 add_external_potential               2  3.5    0.000    0.000    0.000    0.000
 release_fast_vec_access             68 15.7    0.000    0.000    0.000    0.000
 dbcsr_filter_anytype                42 10.1    0.000    0.000    0.000    0.000
 update_motion_AVERAGES               1  7.0    0.000    0.000    0.000    0.000
 qs_scf_post_ps_implicit              2  8.5    0.000    0.000    0.000    0.000
 qs_scf_post_elf                      2  6.5    0.000    0.000    0.000    0.000
 mp_min_rv                            1  2.0    0.000    0.000    0.000    0.000
 write_mos_molden                     2  8.5    0.000    0.000    0.000    0.000
 qs_energies_properties               2  5.5    0.000    0.000    0.000    0.000
 mp_sum_lm3                           1  2.0    0.000    0.000    0.000    0.000
 metadyn_integrator                   1  4.0    0.000    0.000    0.000    0.000
 temperature_control                  1  3.0    0.000    0.000    0.000    0.000
 dbcsr_verify_matrix                  4  9.5    0.000    0.000    0.000    0.000
 mp_max_rv                            1  2.0    0.000    0.000    0.000    0.000
 scf_c_create                         1  4.0    0.000    0.000    0.000    0.000
 qs_scf_post_transport                2  8.5    0.000    0.000    0.000    0.000
 external_c_potential                 4  5.5    0.000    0.000    0.000    0.000
 mp_sum_rv                            1  2.0    0.000    0.000    0.000    0.000
 compute_averages                     1  5.0    0.000    0.000    0.000    0.000
 cp_fm_scale                          1  9.0    0.000    0.000    0.000    0.000
 cp_fm_set_all                        1  9.0    0.000    0.000    0.000    0.000
 read_tddfpt2_control                 1  4.0    0.000    0.000    0.000    0.000
 read_topology_section                1  5.0    0.000    0.000    0.000    0.000
 update_cell_section                  1  7.0    0.000    0.000    0.000    0.000
 mp_irecv_dm2                         2  5.5    0.000    0.000    0.000    0.000
 topology_coordinate_pack_2           2  5.0    0.000    0.000    0.000    0.000
 write_molecule_kind_set              2  4.5    0.000    0.000    0.000    0.000
 grid_create_basis_set                6  9.0    0.000    0.000    0.000    0.000
 read_binary_velocities               3  5.0    0.000    0.000    0.000    0.000
 initialize_cascade                   1  4.0    0.000    0.000    0.000    0.000
 write_particle_distances             2  4.5    0.000    0.000    0.000    0.000
 topology_muc                         2  5.0    0.000    0.000    0.000    0.000
 mp_cart_rank                         8  8.4    0.000    0.000    0.000    0.000
 update_motion_COUNTERS               1  7.0    0.000    0.000    0.000    0.000
 transport_current                    2  9.5    0.000    0.000    0.000    0.000
 read_binary_cs_coordinates           2  7.0    0.000    0.000    0.000    0.000
 reset_ch_pulay                       2  8.5    0.000    0.000    0.000    0.000
 outer_loop_extrapolate               2  6.5    0.000    0.000    0.000    0.000
 set_mo_occupation_2                  1  8.0    0.000    0.000    0.000    0.000
 grid_free_basis_set                  6  2.0    0.000    0.000    0.000    0.000
 check_cp2k_input                     1  2.0    0.000    0.000    0.000    0.000
 write_qs_control                     1  4.0    0.000    0.000    0.000    0.000
 write_symmetry                       2  4.5    0.000    0.000    0.000    0.000
 read_mgrid_section                   1  4.0    0.000    0.000    0.000    0.000
 calculate_ecore_efield               4  5.5    0.000    0.000    0.000    0.000
 write_ks_matrix_csr                  2  8.5    0.000    0.000    0.000    0.000
 qs_scf_post_epr                      2  6.5    0.000    0.000    0.000    0.000
 write_s_matrix_csr                   2  8.5    0.000    0.000    0.000    0.000
 write_adjacency_matrix               2  8.5    0.000    0.000    0.000    0.000
 comvel_control                       1  3.0    0.000    0.000    0.000    0.000
 qs_scf_post_molopt                   2  6.5    0.000    0.000    0.000    0.000
 qs_scf_post_local_energy             2  8.5    0.000    0.000    0.000    0.000
 topology_constraint_pack_7           1  6.0    0.000    0.000    0.000    0.000
 qs_scf_post_efg                      2  6.5    0.000    0.000    0.000    0.000
 qs_scf_post_local_stress             2  8.5    0.000    0.000    0.000    0.000
 external_read_density                2  6.5    0.000    0.000    0.000    0.000
 cp_result_release                    2  2.0    0.000    0.000    0.000    0.000
 write_dft_control                    1  4.0    0.000    0.000    0.000    0.000
 -------------------------------------------------------------------------------

 The number of warnings for this run is : 3
 
 -------------------------------------------------------------------------------
  **** **** ******  **  PROGRAM ENDED AT                 2021-12-10 13:47:35.130
 ***** ** ***  *** **   PROGRAM RAN ON                                 nid003283
 **    ****   ******    PROGRAM RAN BY                                     hjbio
 ***** **    ** ** **   PROGRAM PROCESS ID                                157600
  **** **  *******  **  PROGRAM STOPPED IN /mnt/lustre/a2fs-work1/work/d118/d118
                                           /hjbio/CP2K/qmmm-benchmarking/CPU/cp2
                                           kMD/ClC-253-B3LYP/1STEPS/2NODES/128CP
                                           N/8THREADS
