 DBCSR| CPU Multiplication driver                                           BLAS
 DBCSR| Multrec recursion limit                                              512
 DBCSR| Multiplication stack size                                           1000
 DBCSR| Maximum elements for images                                    UNLIMITED
 DBCSR| Multiplicative factor virtual images                                   1
 DBCSR| Use multiplication densification                                       T
 DBCSR| Multiplication size stacks                                             3
 DBCSR| Use memory pool for CPU allocation                                     F
 DBCSR| Number of 3D layers                                               SINGLE
 DBCSR| Use MPI memory allocation                                              F
 DBCSR| Use RMA algorithm                                                      F
 DBCSR| Use Communication thread                                               T
 DBCSR| Communication thread load                                             87
 DBCSR| MPI: My node id                                                        0
 DBCSR| MPI: Number of nodes                                                  32
 DBCSR| OMP: Current number of threads                                         1
 DBCSR| OMP: Max number of threads                                             1
 DBCSR| Split modifier for TAS multiplication algorithm                  1.0E+00


  **** **** ******  **  PROGRAM STARTED AT               2021-09-06 14:49:43.277
 ***** ** ***  *** **   PROGRAM STARTED ON                             nid001063
 **    ****   ******    PROGRAM STARTED BY                                 hjbio
 ***** **    ** ** **   PROGRAM PROCESS ID                                 95598
  **** **  *******  **  PROGRAM STARTED IN /lus/cls01095/work/d118/d118/hjbio/qm
                                           mm-benchmarking/archer2/CPU/cp2kMD/CB
                                           D_PHY-PBE0/6STEPS/1NODES/32CPN/1THREA
                                           DS

 CP2K| version string:                                          CP2K version 8.2
 CP2K| source code revision number:                                  git:310b7ab
 CP2K| cp2kflags: omp libint fftw3 libxc elpa parallel mpi3 scalapack plumed2   
 CP2K| is freely available from                            https://www.cp2k.org/
 CP2K| Program compiled at                          Thu 10 Jun 17:43:51 BST 2021
 CP2K| Program compiled on                                                 uan01
 CP2K| Program compiled for                                              ARCHER2
 CP2K| Data directory path              /work/d118/d118/hjbio/CP2K/cp2k-8.2/data
 CP2K| Input file name                                          CBD_PHY-cp2k.inp

 GLOBAL| Force Environment number                                              1
 GLOBAL| Basis set file name                                           HFX_BASIS
 GLOBAL| Potential file name                                           POTENTIAL
 GLOBAL| MM Potential file name                                     MM_POTENTIAL
 GLOBAL| Coordinate file name                                        CBD_PHY.pdb
 GLOBAL| Method name                                                        CP2K
 GLOBAL| Project name                                               CBD_PHY-PBE0
 GLOBAL| Run type                                                             MD
 GLOBAL| FFT library                                                       FFTW3
 GLOBAL| Diagonalization library                                            ELPA
 GLOBAL| Minimum number of eigenvectors for ELPA usage                        16
 GLOBAL| Orthonormality check for eigenvectors                          DISABLED
 GLOBAL| Matrix multiplication library                                    SCALAP
 GLOBAL| All-to-all communication in single precision                          F
 GLOBAL| FFTs using library dependent lengths                                  F
 GLOBAL| Grid backend                                                       AUTO
 GLOBAL| Global print level                                                  LOW
 GLOBAL| MPI I/O enabled                                                       T
 GLOBAL| Total number of message passing processes                            32
 GLOBAL| Number of threads for this process                                    1
 GLOBAL| This output is from process                                           0
 GLOBAL| CPU model name                          AMD EPYC 7742 64-Core Processor
 GLOBAL| CPUID                                                              1002

 MEMORY| system memory details [Kb]
 MEMORY|                        rank 0           min           max       average
 MEMORY| MemTotal            263568576     263568576     263568576     263568576
 MEMORY| MemFree             248527440     248526904     248527440     248527322
 MEMORY| Buffers                226496        226496        226496        226496
 MEMORY| Cached                3008548       3008548       3008688       3008618
 MEMORY| Slab                  1893444       1893444       1893444       1893444
 MEMORY| SReclaimable           206100        206100        206100        206100
 MEMORY| MemLikelyFree       251968584     251968188     251968724     251968536



                      ************* ******** ***********   
                     ************* **********************  
                     ****     **** ****      ***********   
                     ******** ****  *******     ****       
                     *******  ****   *******   ****        
                     ****     ****       ****  ****        
                     ****     **** **********  ****        
                      ****     **** ********    ****       
                     FRONTIERS IN SIMULATION TECHNOLOGY    
                                                           
                        C.J. Mundy, S. Balasubramanian,    
                     Ken Bagchi, J. Hutter, Ari Seitsonen  
                      IFW Kuo, T. Laino, J. VandeVondele   
                                 Version 1.0               

                                                           


 EWALD| Summation is done by:                                               SPME
 EWALD| Alpha parameter [       ANGSTROM^-1]                              0.4000
 EWALD| Real Space Cutoff [          ANGSTROM]                            8.4348
 EWALD| G-space max. Miller index                         80        80        80
 EWALD| Spline interpolation order                                             6

 FORCEFIELD| WARNING: A non Critical ForceField parameter is missing! CP2K GOES!
 FORCEFIELD| Non critical parameters are:Urey-Bradley,Torsions,Impropers, Opbends and 1-4
 FORCEFIELD| All missing parameters will not contribute to the potential energy!
 FORCEFIELD| Activate the print key FF_INFO to have a list of missing parameters

 CHARGE_INFO| Total Charge of the Classical System:                    -0.825808

 SPLINE_INFO| Generating 101926 splines for NONBONDED14 interactions 
              Due to 451 different atomic kinds
  ...10192  ...20384  ...30576  ...40768  ...50960  ...61152  ...71344  ...81536  ...91728  ...101920
 SPLINE_INFO| Number of unique splines computed:            301
 SPLINE_INFO| Done

 SPLINE_INFO| Generating 101926 splines for NONBONDED interactions 
              Due to 451 different atomic kinds
  ...10192  ...20384  ...30576  ...40768  ...50960  ...61152  ...71344  ...81536  ...91728  ...101920
 SPLINE_INFO| Number of unique splines computed:            301
 SPLINE_INFO| Done

 *******************************************************************************
 *******************************************************************************
 **                                                                           **
 **     #####                         ##              ##                      **
 **    ##   ##            ##          ##              ##                      **
 **   ##     ##                       ##            ######                    **
 **   ##     ##  ##   ##  ##   #####  ##  ##   ####   ##    #####    #####    **
 **   ##     ##  ##   ##  ##  ##      ## ##   ##      ##   ##   ##  ##   ##   **
 **   ##  ## ##  ##   ##  ##  ##      ####     ###    ##   ######   ######    **
 **    ##  ###   ##   ##  ##  ##      ## ##      ##   ##   ##       ##        **
 **     #######   #####   ##   #####  ##  ##  ####    ##    #####   ##        **
 **           ##                                                    ##        **
 **                                                                           **
 **                                                ... make the atoms dance   **
 **                                                                           **
 **            Copyright (C) by CP2K developers group (2000-2021)             **
 **                      J. Chem. Phys. 152, 194103 (2020)                    **
 **                                                                           **
 *******************************************************************************


 TOTAL NUMBERS AND MAXIMUM NUMBERS

  Total number of            - Atomic kinds:                                   5
                             - Atoms:                                         68
                             - Shell sets:                                   340
                             - Shells:                                       445
                             - Primitive Cartesian functions:                476
                             - Cartesian basis functions:                   1137
                             - Spherical basis functions:                   1067

  Maximum angular momentum of- Orbital basis functions:                        2
                             - Local part of the GTH pseudopotential:          2
                             - Non-local part of the GTH pseudopotential:      0


 SCF PARAMETERS         Density guess:                                   RESTART
                        --------------------------------------------------------
                        max_scf:                                              30
                        max_scf_history:                                       0
                        max_diis:                                              4
                        --------------------------------------------------------
                        eps_scf:                                        1.00E-06
                        eps_scf_history:                                0.00E+00
                        eps_diis:                                       1.00E-01
                        eps_eigval:                                     1.00E-05
                        --------------------------------------------------------
                        level_shift [a.u.]:                                 0.00
                        --------------------------------------------------------
                        Outer loop SCF in use 
                        No variables optimised in outer loop
                        eps_scf                                         1.00E-06
                        max_scf                                               20
                        No outer loop optimization
                        step_size                                       5.00E-01

 *******************************************************************************
 *******************************************************************************
 **                                                                           **
 **             #######  ##     ## ##     ## ##     ##                        **
 **            ##     ## ###   ### ###   ### ###   ###                        **
 **            ##     ## #### #### #### #### #### ####                        **
 **            ##     ## ## ### ## ## ### ## ## ### ##                        **
 **            ##  ## ## ##     ## ##     ## ##     ##                        **
 **            ##    ##  ##     ## ##     ## ##     ##  T.Laino and F.Mohamed **
 **             ##### ## ##     ## ##     ## ##     ##  2005 - 2015           **
 **                                                                           **
 **                                                     Calculation Started.. **
 *******************************************************************************
 *******************************************************************************

 MD_PAR| Molecular dynamics protocol (MD input parameters)
 MD_PAR| Ensemble type                                                       NVE
 MD_PAR| Number of time steps                                                  6
 MD_PAR| Time step [fs]                                                 1.000000
 MD_PAR| Temperature [K]                                              300.000000
 MD_PAR| Temperature tolerance [K]                                      0.000000
 MD_PAR| Print MD information every                                    1 step(s)
 MD_PAR| File type   Print frequency [steps]                          File names
 MD_PAR| Coordinates          1                           CBD_PHY-PBE0-pos-1.xyz
 MD_PAR| Velocities           1                           CBD_PHY-PBE0-vel-1.xyz
 MD_PAR| Energies             1                              CBD_PHY-PBE0-1.ener
 MD_PAR| Dump                20                           CBD_PHY-PBE0-1.restart

 ROT| Rotational analysis information
 ROT| Principal axes and moments of inertia [a.u.]
 ROT|                           1                   2                   3
 ROT| Eigenvalues      1.56283164001E+13   1.56407408488E+13   1.56663418804E+13
 ROT|      x              0.901637047331     -0.018153263569      0.432112362589
 ROT|      y              0.323714777231      0.690893927917     -0.646431994388
 ROT|      z             -0.286808957117      0.722728191915      0.628812040859
 ROT| Number of rotovibrational vectors                                        6

 DOF| Calculation of degrees of freedom
 DOF| Number of atoms                                                     167923
 DOF| Number of intramolecular constraints                                     0
 DOF| Number of intermolecular constraints                                     0
 DOF| Invariants (translations + rotations)                                    3
 DOF| Degrees of freedom                                                  503766

 DOF| Restraints information
 DOF| Number of intramolecular restraints                                      0
 DOF| Number of intermolecular restraints                                      0

 MD_VEL| Velocities initialization
 MD_VEL| Initial temperature [K]                                      300.000000
 MD_VEL| COM velocity            -0.0000000000     0.0000000000     0.0000000000

  Translating the system in order to center the QM fragment in the QM box.

 Number of electrons:                                                        180
 Number of occupied orbitals:                                                 90
 Number of molecular orbitals:                                                90

 Number of orbital functions:                                               1067
 Number of independent orbital functions:                                   1067

 Extrapolation method: initial_guess


 SCF WAVEFUNCTION OPTIMIZATION

  ----------------------------------- OT ---------------------------------------
  Minimizer      : DIIS                : direct inversion
                                         in the iterative subspace
                                         using   7 DIIS vectors
                                         safer DIIS on
  Preconditioner : FULL_ALL            : diagonalization, state selective
  Precond_solver : DEFAULT
  stepsize       :    0.15000000                  energy_gap     :    0.08000000
  eps_taylor     :   0.10000E-15                  max_taylor     :             4
  ----------------------------------- OT ---------------------------------------

  Step     Update method      Time    Convergence         Total energy    Change
  ------------------------------------------------------------------------------
  Decoupling Energy:                                               0.0370647021
  Recoupling Energy:                                              -0.0063741479
     1 OT DIIS     0.15E+00   42.1     0.00129057      -255.9257316521 -2.56E+02
  Decoupling Energy:                                               0.0370576004
  Recoupling Energy:                                              -0.0063740314
     2 OT DIIS     0.15E+00    7.0     0.00057761      -255.9419521977 -1.62E-02
  Decoupling Energy:                                               0.0369596417
  Recoupling Energy:                                              -0.0063730135
     3 OT DIIS     0.15E+00    7.9     0.00038348      -255.9451217318 -3.17E-03
  Decoupling Energy:                                               0.0369795470
  Recoupling Energy:                                              -0.0063732416
     4 OT DIIS     0.15E+00    6.9     0.00009866      -255.9458275768 -7.06E-04
  Decoupling Energy:                                               0.0369716948
  Recoupling Energy:                                              -0.0063731487
     5 OT DIIS     0.15E+00    6.9     0.00003992      -255.9458779686 -5.04E-05
  Decoupling Energy:                                               0.0369737640
  Recoupling Energy:                                              -0.0063731649
     6 OT DIIS     0.15E+00    6.8     0.00001793      -255.9458894170 -1.14E-05
  Decoupling Energy:                                               0.0369741808
  Recoupling Energy:                                              -0.0063731680
     7 OT DIIS     0.15E+00    7.6     0.00000621      -255.9458922938 -2.88E-06
  Decoupling Energy:                                               0.0369727127
  Recoupling Energy:                                              -0.0063731518
     8 OT DIIS     0.15E+00    7.6     0.00000242      -255.9458926328 -3.39E-07
  Decoupling Energy:                                               0.0369731061
  Recoupling Energy:                                              -0.0063731556
     9 OT DIIS     0.15E+00    7.2     0.00000111      -255.9458926822 -4.94E-08
  Decoupling Energy:                                               0.0369728228
  Recoupling Energy:                                              -0.0063731526
    10 OT DIIS     0.15E+00    6.8     0.00000048      -255.9458926924 -1.02E-08

  *** SCF run converged in    10 steps ***


  Electronic density on regular grids:       -179.9999999999        0.0000000001
  Core density on regular grids:              180.9999999999       -0.0000000001
  Total charge density on r-space grids:        1.0000000000
  Total charge density g-space grids:           1.0000000000

  Overlap energy of the core charge distribution:               0.00001951532734
  Self energy of the core charge distribution:               -615.71576003586028
  Core Hamiltonian energy:                                    191.01363220817944
  Hartree energy:                                             248.20663869015698
  Exchange-correlation energy:                                -61.38430761263391
  Hartree-Fock Exchange energy:                               -18.10821018492858
  QM/MM Electrostatic energy:                                   0.04209472735438

  Total energy:                                              -255.94589269240461

  outer SCF iter =    1 RMS gradient =   0.48E-06 energy =       -255.9458926924
  outer SCF loop converged in   1 iterations or   10 steps

  Decoupling Energy:                                               0.0369728028
  Recoupling Energy:                                              -0.0063731523

 ENERGY| Total FORCE_EVAL ( QMMM ) energy [a.u.]:          -1088.110859624523982

 MD_INI| MD initialization
 MD_INI| Potential energy [hartree]                          -0.108811085962E+04
 MD_INI| Total kinetic energy [hartree]                       0.239300084734E+03
 MD_INI| QM kinetic energy [hartree]                          0.106639360339E+00
 MD_INI| Total temperature [K]                                        300.000000
 MD_INI| QM temperature [K]                                           330.137318
 MD_INI| Cell volume [bohr^3]                                 1.137316355424E+07
 MD_INI| Cell volume [ang^3]                                  1.685328937712E+06
 MD_INI| Cell lengths [bohr]      2.24884969E+02  2.24884969E+02  2.24884969E+02
 MD_INI| Cell lengths [ang]       1.19004000E+02  1.19004000E+02  1.19004000E+02
 MD_INI| Cell angles [deg]        9.00000000E+01  9.00000000E+01  9.00000000E+01

  Translating the system in order to center the QM fragment in the QM box.

 Number of electrons:                                                        180
 Number of occupied orbitals:                                                 90
 Number of molecular orbitals:                                                90

 Number of orbital functions:                                               1067
 Number of independent orbital functions:                                   1067

 Extrapolation method: ASPC


 SCF WAVEFUNCTION OPTIMIZATION

  ----------------------------------- OT ---------------------------------------
  Minimizer      : DIIS                : direct inversion
                                         in the iterative subspace
                                         using   7 DIIS vectors
                                         safer DIIS on
  Preconditioner : FULL_ALL            : diagonalization, state selective
  Precond_solver : DEFAULT
  stepsize       :    0.15000000                  energy_gap     :    0.08000000
  eps_taylor     :   0.10000E-15                  max_taylor     :             4
  ----------------------------------- OT ---------------------------------------

  Step     Update method      Time    Convergence         Total energy    Change
  ------------------------------------------------------------------------------
  Decoupling Energy:                                               0.0370014667
  Recoupling Energy:                                              -0.0063734172
     1 OT DIIS     0.15E+00   28.7     0.00075899      -255.7182133755 -2.56E+02
  Decoupling Energy:                                               0.0370082386
  Recoupling Energy:                                              -0.0063735355
     2 OT DIIS     0.15E+00    7.0     0.00032685      -255.7237312546 -5.52E-03
  Decoupling Energy:                                               0.0370087411
  Recoupling Energy:                                              -0.0063735590
     3 OT DIIS     0.15E+00    8.3     0.00019068      -255.7247685854 -1.04E-03
  Decoupling Energy:                                               0.0370199883
  Recoupling Energy:                                              -0.0063736817
     4 OT DIIS     0.15E+00    7.3     0.00006054      -255.7249610225 -1.92E-04
  Decoupling Energy:                                               0.0370216763
  Recoupling Energy:                                              -0.0063737045
     5 OT DIIS     0.15E+00    7.2     0.00001954      -255.7249775872 -1.66E-05
  Decoupling Energy:                                               0.0370210005
  Recoupling Energy:                                              -0.0063736984
     6 OT DIIS     0.15E+00    7.0     0.00000817      -255.7249798456 -2.26E-06
  Decoupling Energy:                                               0.0370221929
  Recoupling Energy:                                              -0.0063737124
     7 OT DIIS     0.15E+00    7.0     0.00000308      -255.7249803076 -4.62E-07
  Decoupling Energy:                                               0.0370222382
  Recoupling Energy:                                              -0.0063737132
     8 OT DIIS     0.15E+00    7.0     0.00000136      -255.7249803849 -7.72E-08
  Decoupling Energy:                                               0.0370224659
  Recoupling Energy:                                              -0.0063737159
     9 OT DIIS     0.15E+00    7.0     0.00000058      -255.7249804006 -1.57E-08

  *** SCF run converged in     9 steps ***


  Electronic density on regular grids:       -180.0000000000        0.0000000000
  Core density on regular grids:              180.9999999999       -0.0000000001
  Total charge density on r-space grids:        0.9999999999
  Total charge density g-space grids:           0.9999999999

  Overlap energy of the core charge distribution:               0.00002422739645
  Self energy of the core charge distribution:               -615.71576003586028
  Core Hamiltonian energy:                                    191.21094989277015
  Hartree energy:                                             248.07774817281418
  Exchange-correlation energy:                                -61.42683491638807
  Hartree-Fock Exchange energy:                               -18.12283147981312
  QM/MM Electrostatic energy:                                   0.25172373847776

  Total energy:                                              -255.72498040060293

  outer SCF iter =    1 RMS gradient =   0.58E-06 energy =       -255.7249804006
  outer SCF loop converged in   1 iterations or    9 steps

  Decoupling Energy:                                               0.0370224944
  Recoupling Energy:                                              -0.0063737164

 ENERGY| Total FORCE_EVAL ( QMMM ) energy [a.u.]:          -1059.962356570254542

 MD| ***************************************************************************
 MD| Step number                                                               1
 MD| Time [fs]                                                          1.000000
 MD| Conserved quantity [hartree]                            -0.841461427191E+03
 MD| ---------------------------------------------------------------------------
 MD|                                          Instantaneous             Averages
 MD| CPU time per MD step [s]                    497.136265           497.136265
 MD| Energy drift per atom [K]           0.138202490564E+02   0.000000000000E+00
 MD| Potential energy [hartree]         -0.105996235657E+04  -0.105996235657E+04
 MD| Total kinetic energy [hartree]      0.218500929380E+03   0.218500929380E+03
 MD| QM kinetic energy [hartree]         0.121347254774E+00   0.121347254774E+00
 MD| Total temperature [K]                       273.925013           273.925013
 MD| QM temperature [K]                          375.670457           375.670457
 MD| ***************************************************************************

  Translating the system in order to center the QM fragment in the QM box.

 Number of electrons:                                                        180
 Number of occupied orbitals:                                                 90
 Number of molecular orbitals:                                                90

 Number of orbital functions:                                               1067
 Number of independent orbital functions:                                   1067

 Extrapolation method: ASPC


 SCF WAVEFUNCTION OPTIMIZATION

  ----------------------------------- OT ---------------------------------------
  Minimizer      : DIIS                : direct inversion
                                         in the iterative subspace
                                         using   7 DIIS vectors
                                         safer DIIS on
  Preconditioner : FULL_ALL            : diagonalization, state selective
  Precond_solver : DEFAULT
  stepsize       :    0.15000000                  energy_gap     :    0.08000000
  eps_taylor     :   0.10000E-15                  max_taylor     :             4
  ----------------------------------- OT ---------------------------------------

  Step     Update method      Time    Convergence         Total energy    Change
  ------------------------------------------------------------------------------
  Decoupling Energy:                                               0.0370781907
  Recoupling Energy:                                              -0.0063743357
     1 OT DIIS     0.15E+00   29.1     0.00029256      -255.3622523176 -2.55E+02
  Decoupling Energy:                                               0.0370714513
  Recoupling Energy:                                              -0.0063742686
     2 OT DIIS     0.15E+00    7.4     0.00012379      -255.3630881132 -8.36E-04
  Decoupling Energy:                                               0.0370747243
  Recoupling Energy:                                              -0.0063743003
     3 OT DIIS     0.15E+00    7.0     0.00005679      -255.3632554386 -1.67E-04
  Decoupling Energy:                                               0.0370720821
  Recoupling Energy:                                              -0.0063742777
     4 OT DIIS     0.15E+00    7.0     0.00001757      -255.3632742310 -1.88E-05
  Decoupling Energy:                                               0.0370725529
  Recoupling Energy:                                              -0.0063742816
     5 OT DIIS     0.15E+00    7.0     0.00000682      -255.3632757580 -1.53E-06
  Decoupling Energy:                                               0.0370729699
  Recoupling Energy:                                              -0.0063742867
     6 OT DIIS     0.15E+00    7.0     0.00000313      -255.3632760157 -2.58E-07
  Decoupling Energy:                                               0.0370729547
  Recoupling Energy:                                              -0.0063742866
     7 OT DIIS     0.15E+00    7.0     0.00000105      -255.3632760767 -6.10E-08
  Decoupling Energy:                                               0.0370730126
  Recoupling Energy:                                              -0.0063742873
     8 OT DIIS     0.15E+00    7.0     0.00000048      -255.3632760868 -1.02E-08

  *** SCF run converged in     8 steps ***


  Electronic density on regular grids:       -180.0000000000       -0.0000000000
  Core density on regular grids:              180.9999999999       -0.0000000001
  Total charge density on r-space grids:        0.9999999998
  Total charge density g-space grids:           0.9999999998

  Overlap energy of the core charge distribution:               0.00005088935442
  Self energy of the core charge distribution:               -615.71576003586028
  Core Hamiltonian energy:                                    191.44418488687592
  Hartree energy:                                             247.94136832309391
  Exchange-correlation energy:                                -61.47332474895423
  Hartree-Fock Exchange energy:                               -18.13880660646213
  QM/MM Electrostatic energy:                                   0.57901120511783

  Total energy:                                              -255.36327608683462

  outer SCF iter =    1 RMS gradient =   0.48E-06 energy =       -255.3632760868
  outer SCF loop converged in   1 iterations or    8 steps

  Decoupling Energy:                                               0.0370730293
  Recoupling Energy:                                              -0.0063742875

 ENERGY| Total FORCE_EVAL ( QMMM ) energy [a.u.]:          -1061.235329450397785

 MD| ***************************************************************************
 MD| Step number                                                               2
 MD| Time [fs]                                                          2.000000
 MD| Conserved quantity [hartree]                            -0.842817775618E+03
 MD| ---------------------------------------------------------------------------
 MD|                                          Instantaneous             Averages
 MD| CPU time per MD step [s]                    233.150431           365.143348
 MD| Energy drift per atom [K]           0.112696726181E+02   0.563483630904E+01
 MD| Potential energy [hartree]         -0.106123532945E+04  -0.106059884301E+04
 MD| Total kinetic energy [hartree]      0.218417553832E+03   0.218459241606E+03
 MD| QM kinetic energy [hartree]         0.111577309163E+00   0.116462281969E+00
 MD| Total temperature [K]                       273.820489           273.872751
 MD| QM temperature [K]                          345.424368           360.547413
 MD| ***************************************************************************

  Translating the system in order to center the QM fragment in the QM box.

 Number of electrons:                                                        180
 Number of occupied orbitals:                                                 90
 Number of molecular orbitals:                                                90

 Number of orbital functions:                                               1067
 Number of independent orbital functions:                                   1067

 Extrapolation method: ASPC


 SCF WAVEFUNCTION OPTIMIZATION

  ----------------------------------- OT ---------------------------------------
  Minimizer      : DIIS                : direct inversion
                                         in the iterative subspace
                                         using   7 DIIS vectors
                                         safer DIIS on
  Preconditioner : FULL_ALL            : diagonalization, state selective
  Precond_solver : DEFAULT
  stepsize       :    0.15000000                  energy_gap     :    0.08000000
  eps_taylor     :   0.10000E-15                  max_taylor     :             4
  ----------------------------------- OT ---------------------------------------

  Step     Update method      Time    Convergence         Total energy    Change
  ------------------------------------------------------------------------------
  Decoupling Energy:                                               0.0371231729
  Recoupling Energy:                                              -0.0063748341
     1 OT DIIS     0.15E+00   28.4     0.00057322      -254.8840249830 -2.55E+02
  Decoupling Energy:                                               0.0371263935
  Recoupling Energy:                                              -0.0063748789
     2 OT DIIS     0.15E+00    7.0     0.00022571      -254.8871519935 -3.13E-03
  Decoupling Energy:                                               0.0371270852
  Recoupling Energy:                                              -0.0063748846
     3 OT DIIS     0.15E+00    6.9     0.00008232      -254.8877075760 -5.56E-04
  Decoupling Energy:                                               0.0371223243
  Recoupling Energy:                                              -0.0063748372
     4 OT DIIS     0.15E+00    6.9     0.00002754      -254.8877578337 -5.03E-05
  Decoupling Energy:                                               0.0371233199
  Recoupling Energy:                                              -0.0063748479
     5 OT DIIS     0.15E+00    6.9     0.00001038      -254.8877616400 -3.81E-06
  Decoupling Energy:                                               0.0371231603
  Recoupling Energy:                                              -0.0063748451
     6 OT DIIS     0.15E+00    6.9     0.00000441      -254.8877622264 -5.86E-07
  Decoupling Energy:                                               0.0371230819
  Recoupling Energy:                                              -0.0063748446
     7 OT DIIS     0.15E+00    6.9     0.00000136      -254.8877623171 -9.07E-08
  Decoupling Energy:                                               0.0371230850
  Recoupling Energy:                                              -0.0063748447
     8 OT DIIS     0.15E+00    7.0     0.00000059      -254.8877623280 -1.08E-08

  *** SCF run converged in     8 steps ***


  Electronic density on regular grids:       -180.0000000003       -0.0000000003
  Core density on regular grids:              180.9999999999       -0.0000000001
  Total charge density on r-space grids:        0.9999999996
  Total charge density g-space grids:           0.9999999996

  Overlap energy of the core charge distribution:               0.00005124471082
  Self energy of the core charge distribution:               -615.71576003586028
  Core Hamiltonian energy:                                    191.49124834028947
  Hartree energy:                                             247.90728688490947
  Exchange-correlation energy:                                -61.48094408208929
  Hartree-Fock Exchange energy:                               -18.14140085858273
  QM/MM Electrostatic energy:                                   1.05175617865179

  Total energy:                                              -254.88776232797079

  outer SCF iter =    1 RMS gradient =   0.59E-06 energy =       -254.8877623280
  outer SCF loop converged in   1 iterations or    8 steps

  Decoupling Energy:                                               0.0371230844
  Recoupling Energy:                                              -0.0063748446

 ENERGY| Total FORCE_EVAL ( QMMM ) energy [a.u.]:          -1082.045340796014898

 MD| ***************************************************************************
 MD| Step number                                                               3
 MD| Time [fs]                                                          3.000000
 MD| Conserved quantity [hartree]                            -0.846392351679E+03
 MD| ---------------------------------------------------------------------------
 MD|                                          Instantaneous             Averages
 MD| CPU time per MD step [s]                    226.637000           318.974565
 MD| Energy drift per atom [K]           0.454777926829E+01   0.527248396212E+01
 MD| Potential energy [hartree]         -0.108204534080E+04  -0.106774767561E+04
 MD| Total kinetic energy [hartree]      0.235652989117E+03   0.224190490776E+03
 MD| QM kinetic energy [hartree]         0.117354916851E+00   0.116759826930E+00
 MD| Total temperature [K]                       295.427796           281.057766
 MD| QM temperature [K]                          363.310858           361.468561
 MD| ***************************************************************************

  Translating the system in order to center the QM fragment in the QM box.

 Number of electrons:                                                        180
 Number of occupied orbitals:                                                 90
 Number of molecular orbitals:                                                90

 Number of orbital functions:                                               1067
 Number of independent orbital functions:                                   1067

 Extrapolation method: ASPC


 SCF WAVEFUNCTION OPTIMIZATION

  ----------------------------------- OT ---------------------------------------
  Minimizer      : DIIS                : direct inversion
                                         in the iterative subspace
                                         using   7 DIIS vectors
                                         safer DIIS on
  Preconditioner : FULL_ALL            : diagonalization, state selective
  Precond_solver : DEFAULT
  stepsize       :    0.15000000                  energy_gap     :    0.08000000
  eps_taylor     :   0.10000E-15                  max_taylor     :             4
  ----------------------------------- OT ---------------------------------------

  Step     Update method      Time    Convergence         Total energy    Change
  ------------------------------------------------------------------------------
  Decoupling Energy:                                               0.0371654834
  Recoupling Energy:                                              -0.0063753287
     1 OT DIIS     0.15E+00   28.5     0.00026635      -254.3373034774 -2.54E+02
  Decoupling Energy:                                               0.0371741779
  Recoupling Energy:                                              -0.0063754092
     2 OT DIIS     0.15E+00    6.9     0.00010679      -254.3379927225 -6.89E-04
  Decoupling Energy:                                               0.0371691900
  Recoupling Energy:                                              -0.0063753577
     3 OT DIIS     0.15E+00    6.9     0.00003983      -254.3381206504 -1.28E-04
  Decoupling Energy:                                               0.0371714566
  Recoupling Energy:                                              -0.0063753811
     4 OT DIIS     0.15E+00    8.2     0.00001257      -254.3381304700 -9.82E-06
  Decoupling Energy:                                               0.0371702558
  Recoupling Energy:                                              -0.0063753693
     5 OT DIIS     0.15E+00    7.4     0.00000529      -254.3381313031 -8.33E-07
  Decoupling Energy:                                               0.0371705254
  Recoupling Energy:                                              -0.0063753714
     6 OT DIIS     0.15E+00    7.1     0.00000187      -254.3381314369 -1.34E-07
  Decoupling Energy:                                               0.0371705347
  Recoupling Energy:                                              -0.0063753717
     7 OT DIIS     0.15E+00    7.0     0.00000064      -254.3381314551 -1.82E-08

  *** SCF run converged in     7 steps ***


  Electronic density on regular grids:       -179.9999999999        0.0000000001
  Core density on regular grids:              180.9999999999       -0.0000000001
  Total charge density on r-space grids:        1.0000000000
  Total charge density g-space grids:           1.0000000000

  Overlap energy of the core charge distribution:               0.00002358440395
  Self energy of the core charge distribution:               -615.71576003586028
  Core Hamiltonian energy:                                    191.34732345527812
  Hartree energy:                                             247.97609494661731
  Exchange-correlation energy:                                -61.44936706423182
  Hartree-Fock Exchange energy:                               -18.13041755980017
  QM/MM Electrostatic energy:                                   1.63397121844472

  Total energy:                                              -254.33813145514819

  outer SCF iter =    1 RMS gradient =   0.64E-06 energy =       -254.3381314551
  outer SCF loop converged in   1 iterations or    7 steps

  Decoupling Energy:                                               0.0371704658
  Recoupling Energy:                                              -0.0063753710

 ENERGY| Total FORCE_EVAL ( QMMM ) energy [a.u.]:          -1079.714053450675237

 MD| ***************************************************************************
 MD| Step number                                                               4
 MD| Time [fs]                                                          4.000000
 MD| Conserved quantity [hartree]                            -0.842113598165E+03
 MD| ---------------------------------------------------------------------------
 MD|                                          Instantaneous             Averages
 MD| CPU time per MD step [s]                    224.041884           295.241395
 MD| Energy drift per atom [K]           0.125938592238E+02   0.710282777753E+01
 MD| Potential energy [hartree]         -0.107971405345E+04  -0.107073927007E+04
 MD| Total kinetic energy [hartree]      0.237600455286E+03   0.227542981904E+03
 MD| QM kinetic energy [hartree]         0.148327183337E+00   0.124651666031E+00
 MD| Total temperature [K]                       297.869249           285.260637
 MD| QM temperature [K]                          459.195726           385.900352
 MD| ***************************************************************************

  Translating the system in order to center the QM fragment in the QM box.

 Number of electrons:                                                        180
 Number of occupied orbitals:                                                 90
 Number of molecular orbitals:                                                90

 Number of orbital functions:                                               1067
 Number of independent orbital functions:                                   1067

 Extrapolation method: ASPC


 SCF WAVEFUNCTION OPTIMIZATION

  ----------------------------------- OT ---------------------------------------
  Minimizer      : DIIS                : direct inversion
                                         in the iterative subspace
                                         using   7 DIIS vectors
                                         safer DIIS on
  Preconditioner : FULL_ALL            : diagonalization, state selective
  Precond_solver : DEFAULT
  stepsize       :    0.15000000                  energy_gap     :    0.08000000
  eps_taylor     :   0.10000E-15                  max_taylor     :             4
  ----------------------------------- OT ---------------------------------------

  Step     Update method      Time    Convergence         Total energy    Change
  ------------------------------------------------------------------------------
  Decoupling Energy:                                               0.0372101181
  Recoupling Energy:                                              -0.0063758435
     1 OT DIIS     0.15E+00   28.6     0.00032155      -253.7449298808 -2.54E+02
  Decoupling Energy:                                               0.0372073483
  Recoupling Energy:                                              -0.0063758035
     2 OT DIIS     0.15E+00    7.1     0.00013171      -253.7458482608 -9.18E-04
  Decoupling Energy:                                               0.0372092639
  Recoupling Energy:                                              -0.0063758203
     3 OT DIIS     0.15E+00    7.0     0.00006245      -253.7460070453 -1.59E-04
  Decoupling Energy:                                               0.0372088532
  Recoupling Energy:                                              -0.0063758159
     4 OT DIIS     0.15E+00    7.0     0.00002424      -253.7460382382 -3.12E-05
  Decoupling Energy:                                               0.0372096046
  Recoupling Energy:                                              -0.0063758218
     5 OT DIIS     0.15E+00    7.0     0.00000519      -253.7460407629 -2.52E-06
  Decoupling Energy:                                               0.0372092910
  Recoupling Energy:                                              -0.0063758192
     6 OT DIIS     0.15E+00    7.0     0.00000250      -253.7460409047 -1.42E-07
  Decoupling Energy:                                               0.0372093003
  Recoupling Energy:                                              -0.0063758191
     7 OT DIIS     0.15E+00    8.3     0.00000089      -253.7460409364 -3.17E-08

  *** SCF run converged in     7 steps ***


  Electronic density on regular grids:       -180.0000000000       -0.0000000000
  Core density on regular grids:              180.9999999999       -0.0000000001
  Total charge density on r-space grids:        0.9999999998
  Total charge density g-space grids:           0.9999999998

  Overlap energy of the core charge distribution:               0.00001841782067
  Self energy of the core charge distribution:               -615.71576003586028
  Core Hamiltonian energy:                                    191.22473322238295
  Hartree energy:                                             248.04795860259406
  Exchange-correlation energy:                                -61.41798821383902
  Hartree-Fock Exchange energy:                               -18.11952213048325
  QM/MM Electrostatic energy:                                   2.23451920100852

  Total energy:                                              -253.74604093637635

  outer SCF iter =    1 RMS gradient =   0.89E-06 energy =       -253.7460409364
  outer SCF loop converged in   1 iterations or    7 steps

  Decoupling Energy:                                               0.0372093261
  Recoupling Energy:                                              -0.0063758193

 ENERGY| Total FORCE_EVAL ( QMMM ) energy [a.u.]:          -1094.307010900907244

 MD| ***************************************************************************
 MD| Step number                                                               5
 MD| Time [fs]                                                          5.000000
 MD| Conserved quantity [hartree]                            -0.848389417188E+03
 MD| ---------------------------------------------------------------------------
 MD|                                          Instantaneous             Averages
 MD| CPU time per MD step [s]                    223.737726           280.940661
 MD| Energy drift per atom [K]           0.792351734263E+00   0.584073256888E+01
 MD| Potential energy [hartree]         -0.109430701090E+04  -0.107545281823E+04
 MD| Total kinetic energy [hartree]      0.245917593713E+03   0.231217904265E+03
 MD| QM kinetic energy [hartree]         0.157563506583E+00   0.131234034142E+00
 MD| Total temperature [K]                       308.296080           289.867726
 MD| QM temperature [K]                          487.789812           406.278244
 MD| ***************************************************************************

  Translating the system in order to center the QM fragment in the QM box.

 Number of electrons:                                                        180
 Number of occupied orbitals:                                                 90
 Number of molecular orbitals:                                                90

 Number of orbital functions:                                               1067
 Number of independent orbital functions:                                   1067

 Extrapolation method: ASPC


 SCF WAVEFUNCTION OPTIMIZATION

  ----------------------------------- OT ---------------------------------------
  Minimizer      : DIIS                : direct inversion
                                         in the iterative subspace
                                         using   7 DIIS vectors
                                         safer DIIS on
  Preconditioner : FULL_ALL            : diagonalization, state selective
  Precond_solver : DEFAULT
  stepsize       :    0.15000000                  energy_gap     :    0.08000000
  eps_taylor     :   0.10000E-15                  max_taylor     :             4
  ----------------------------------- OT ---------------------------------------

  Step     Update method      Time    Convergence         Total energy    Change
  ------------------------------------------------------------------------------
  Decoupling Energy:                                               0.0372439682
  Recoupling Energy:                                              -0.0063762172
     1 OT DIIS     0.15E+00   28.3     0.00048942      -253.1925174531 -2.53E+02
  Decoupling Energy:                                               0.0372418443
  Recoupling Energy:                                              -0.0063762255
     2 OT DIIS     0.15E+00    7.4     0.00019206      -253.1946645371 -2.15E-03
  Decoupling Energy:                                               0.0372397753
  Recoupling Energy:                                              -0.0063761962
     3 OT DIIS     0.15E+00    7.2     0.00008070      -253.1950214643 -3.57E-04
  Decoupling Energy:                                               0.0372397705
  Recoupling Energy:                                              -0.0063761977
     4 OT DIIS     0.15E+00    7.1     0.00002256      -253.1950802790 -5.88E-05
  Decoupling Energy:                                               0.0372388349
  Recoupling Energy:                                              -0.0063761874
     5 OT DIIS     0.15E+00    6.9     0.00000834      -253.1950828660 -2.59E-06
  Decoupling Energy:                                               0.0372394728
  Recoupling Energy:                                              -0.0063761927
     6 OT DIIS     0.15E+00    6.9     0.00000285      -253.1950832235 -3.58E-07
  Decoupling Energy:                                               0.0372392241
  Recoupling Energy:                                              -0.0063761904
     7 OT DIIS     0.15E+00    6.9     0.00000087      -253.1950832636 -4.01E-08

  *** SCF run converged in     7 steps ***


  Electronic density on regular grids:       -180.0000000000       -0.0000000000
  Core density on regular grids:              180.9999999999       -0.0000000001
  Total charge density on r-space grids:        0.9999999999
  Total charge density g-space grids:           0.9999999999

  Overlap energy of the core charge distribution:               0.00001843289053
  Self energy of the core charge distribution:               -615.71576003586028
  Core Hamiltonian energy:                                    191.21894610695904
  Hartree energy:                                             248.05853661938698
  Exchange-correlation energy:                                -61.40902691370805
  Hartree-Fock Exchange energy:                               -18.11645332868063
  QM/MM Electrostatic energy:                                   2.76865585539652

  Total energy:                                              -253.19508326361589

  outer SCF iter =    1 RMS gradient =   0.87E-06 energy =       -253.1950832636
  outer SCF loop converged in   1 iterations or    7 steps

  Decoupling Energy:                                               0.0372392199
  Recoupling Energy:                                              -0.0063761903

 ENERGY| Total FORCE_EVAL ( QMMM ) energy [a.u.]:          -1057.339964575344084

 MD| ***************************************************************************
 MD| Step number                                                               6
 MD| Time [fs]                                                          6.000000
 MD| Conserved quantity [hartree]                            -0.842900324473E+03
 MD| ---------------------------------------------------------------------------
 MD|                                          Instantaneous             Averages
 MD| CPU time per MD step [s]                    221.028170           270.955246
 MD| Energy drift per atom [K]           0.111144417347E+02   0.671968409651E+01
 MD| Potential energy [hartree]         -0.105733996458E+04  -0.107243400929E+04
 MD| Total kinetic energy [hartree]      0.214439640102E+03   0.228421526905E+03
 MD| QM kinetic energy [hartree]         0.141131722876E+00   0.132883648931E+00
 MD| Total temperature [K]                       268.833553           286.362030
 MD| QM temperature [K]                          436.919805           411.385171
 MD| ***************************************************************************

 -------------------------------------------------------------------------------
 -                                                                             -
 -                                DBCSR STATISTICS                             -
 -                                                                             -
 -------------------------------------------------------------------------------
 COUNTER                                    TOTAL       BLAS       SMM       ACC
 flops     9 x    26 x    26              2810808     100.0%      0.0%      0.0%
 flops    22 x    26 x    26              7287280     100.0%      0.0%      0.0%
 flops     9 x    32 x    32              8515584     100.0%      0.0%      0.0%
 flops    26 x    26 x    26             13709280     100.0%      0.0%      0.0%
 flops    22 x    32 x    32             22077440     100.0%      0.0%      0.0%
 flops    26 x    26 x    32             33745920     100.0%      0.0%      0.0%
 flops    26 x    32 x    26             33745920     100.0%      0.0%      0.0%
 flops    32 x    26 x    26             33745920     100.0%      0.0%      0.0%
 flops    32 x    32 x    26             83066880     100.0%      0.0%      0.0%
 flops    26 x    32 x    32             83066880     100.0%      0.0%      0.0%
 flops    32 x    26 x    32             83066880     100.0%      0.0%      0.0%
 flops    26 x    26 x   133             83074992     100.0%      0.0%      0.0%
 flops    26 x    26 x   146             91195104     100.0%      0.0%      0.0%
 flops   261 x    26 x    26             98804160     100.0%      0.0%      0.0%
 flops   266 x    26 x    26            100696960     100.0%      0.0%      0.0%
 flops    26 x    26 x   124            116180064     100.0%      0.0%      0.0%
 flops     9 x     9 x    26            165405240     100.0%      0.0%      0.0%
 flops   270 x    26 x    26            204422400     100.0%      0.0%      0.0%
 flops    32 x    32 x    32            204472320     100.0%      0.0%      0.0%
 flops    26 x    32 x   133            204492288     100.0%      0.0%      0.0%
 flops    32 x    26 x   133            204492288     100.0%      0.0%      0.0%
 flops    26 x    32 x   146            224480256     100.0%      0.0%      0.0%
 flops    32 x    26 x   146            224480256     100.0%      0.0%      0.0%
 flops   261 x    26 x    32            243210240     100.0%      0.0%      0.0%
 flops   261 x    32 x    26            243210240     100.0%      0.0%      0.0%
 flops   266 x    32 x    26            247869440     100.0%      0.0%      0.0%
 flops   266 x    26 x    32            247869440     100.0%      0.0%      0.0%
 flops    26 x    32 x   124            285981696     100.0%      0.0%      0.0%
 flops    32 x    26 x   124            285981696     100.0%      0.0%      0.0%
 flops     9 x     9 x    32            407151360     100.0%      0.0%      0.0%
 flops    22 x     9 x    26            415855440     100.0%      0.0%      0.0%
 flops     9 x    22 x    26            416576160     100.0%      0.0%      0.0%
 flops   261 x    26 x   133            454879152     100.0%      0.0%      0.0%
 flops   266 x    26 x   133            463593312     100.0%      0.0%      0.0%
 flops   261 x    26 x   146            499341024     100.0%      0.0%      0.0%
 flops   270 x    26 x    32            503193600     100.0%      0.0%      0.0%
 flops   270 x    32 x    26            503193600     100.0%      0.0%      0.0%
 flops    32 x    32 x   133            503365632     100.0%      0.0%      0.0%
 flops   266 x    26 x   146            508906944     100.0%      0.0%      0.0%
 flops    32 x    32 x   146            552566784     100.0%      0.0%      0.0%
 flops   261 x    32 x    32            598671360     100.0%      0.0%      0.0%
 flops   266 x    32 x    32            610140160     100.0%      0.0%      0.0%
 flops   261 x    26 x   124            636146784     100.0%      0.0%      0.0%
 flops   266 x    26 x   124            648333504     100.0%      0.0%      0.0%
 flops    32 x    32 x   124            703954944     100.0%      0.0%      0.0%
 flops     9 x    26 x     9            802701900     100.0%      0.0%      0.0%
 flops   270 x    26 x   133            941129280     100.0%      0.0%      0.0%
 flops    22 x     9 x    32           1023644160     100.0%      0.0%      0.0%
 flops     9 x    22 x    32           1025418240     100.0%      0.0%      0.0%
 flops   270 x    26 x   146           1033119360     100.0%      0.0%      0.0%
 flops    22 x    22 x    26           1109908800     100.0%      0.0%      0.0%
 flops   261 x    32 x   133           1119702528     100.0%      0.0%      0.0%
 flops   266 x    32 x   133           1141152768     100.0%      0.0%      0.0%
 flops   261 x    32 x   146           1229147136     100.0%      0.0%      0.0%
 flops   270 x    32 x    32           1238630400     100.0%      0.0%      0.0%
 flops   266 x    32 x   146           1252694016     100.0%      0.0%      0.0%
 flops   270 x    26 x   124           1316165760     100.0%      0.0%      0.0%
 flops   261 x    32 x   124           1565899776     100.0%      0.0%      0.0%
 flops   266 x    32 x   124           1595897856     100.0%      0.0%      0.0%
 flops     9 x    32 x     9           1975881600     100.0%      0.0%      0.0%
 flops     9 x    26 x    22           2081079000     100.0%      0.0%      0.0%
 flops    22 x    26 x     9           2081079000     100.0%      0.0%      0.0%
 flops   270 x    32 x   133           2316625920     100.0%      0.0%      0.0%
 flops   270 x    32 x   146           2543063040     100.0%      0.0%      0.0%
 flops    22 x    22 x    32           2732083200     100.0%      0.0%      0.0%
 flops   270 x    32 x   124           3239792640     100.0%      0.0%      0.0%
 flops    22 x    32 x     9           5122656000     100.0%      0.0%      0.0%
 flops     9 x    32 x    22           5122656000     100.0%      0.0%      0.0%
 flops    22 x    26 x    22           5395390000     100.0%      0.0%      0.0%
 flops    22 x    32 x    22          13280960000     100.0%      0.0%      0.0%
 flops inhomo. stacks                  4079496960     100.0%      0.0%      0.0%
 flops total                        78.673003E+09     100.0%      0.0%      0.0%
 flops max/rank                      6.815533E+09     100.0%      0.0%      0.0%
 matmuls inhomo. stacks                      3591     100.0%      0.0%      0.0%
 matmuls total                            2971026     100.0%      0.0%      0.0%
 number of processed stacks                143586     100.0%      0.0%      0.0%
 average stack size                                    20.7       0.0       0.0
 marketing flops                    85.671830E+09
 -------------------------------------------------------------------------------
 # multiplications                           1286
 max memory usage/rank               2.383823E+09
 # max total images/rank                        2
 # max 3D layers                                1
 # MPI messages exchanged                  534976
 MPI messages size (bytes):
  total size                        24.047462E+09
  min size                           0.000000E+00
  max size                         315.360000E+03
  average size                      44.950543E+03
 MPI breakdown and total messages size (bytes):
             size <=      128              312689                        0
       128 < size <=     8192               42723                307609632
      8192 < size <=    32768               47082               1385410320
     32768 < size <=   131072               65058               3164106960
    131072 < size <=  4194304               67424              19190370584
   4194304 < size <= 16777216                   0                        0
  16777216 < size                               0                        0
 -------------------------------------------------------------------------------

 *** WARNING in dbcsr_mm.F:294 :: Using a non-square number of MPI ranks ***
 *** might lead to poor performance. Used ranks: 32 Suggested: 36 64     ***

 -------------------------------------------------------------------------------
 -                                                                             -
 -                      DBCSR MESSAGE PASSING PERFORMANCE                      -
 -                                                                             -
 -------------------------------------------------------------------------------
 ROUTINE             CALLS      AVE VOLUME [Bytes]
 MP_Bcast               71                     12.
 MP_Allreduce         6890                      8.
 MP_Alltoall          5344                  14385.
 MP_ISend            39756                  23563.
 MP_IRecv            39294                  22595.
 -------------------------------------------------------------------------------

 -------------------------------------------------------------------------------
 -                                                                             -
 -                                GRID STATISTICS                              -
 -                                                                             -
 -------------------------------------------------------------------------------
 LP    KERNEL             BACKEND                              COUNT     PERCENT
 2     collocate ortho    REF                                1126269      19.15%
 2     integrate ortho    REF                                1106014      18.80%
 1     collocate ortho    REF                                 943978      16.05%
 1     integrate ortho    REF                                 870340      14.80%
 3     integrate ortho    REF                                 570062       9.69%
 3     collocate ortho    REF                                 500530       8.51%
 0     collocate ortho    REF                                 281245       4.78%
 0     integrate ortho    REF                                 249988       4.25%
 4     integrate ortho    REF                                 121240       2.06%
 4     collocate ortho    REF                                  73823       1.26%
 0     collocate general  REF                                  15232       0.26%
 1     integrate general  REF                                  15232       0.26%
 5     integrate ortho    REF                                   8201       0.14%
 -------------------------------------------------------------------------------

 MEMORY| Estimated peak process memory [MiB]                                2324

 -------------------------------------------------------------------------------
 -                                                                             -
 -                         MESSAGE PASSING PERFORMANCE                         -
 -                                                                             -
 -------------------------------------------------------------------------------

 ROUTINE             CALLS      AVE VOLUME [Bytes]
 MP_Group                8
 MP_Bcast             6942               10565475.
 MP_Allreduce         2477                1659268.
 MP_Sync               437
 MP_Alltoall          1344               35661819.
 MP_ISendRecv        12803                 111334.
 MP_Wait             20454
 MP_comm_split          21
 MP_ISend             6475                 861828.
 MP_IRecv             6468                 861818.
 MP_Recv                49                 102432.
 -------------------------------------------------------------------------------


 -------------------------------------------------------------------------------
 -                                                                             -
 -                           R E F E R E N C E S                               -
 -                                                                             -
 -------------------------------------------------------------------------------
 
 CP2K version 8.2, the CP2K developers group (2021).
 CP2K is freely available from https://www.cp2k.org/ .

 Kuehne,Thomas D.; Iannuzzi,Marcella; Del Ben,Mauro;
 Rybkin,Vladimir V.; Seewald,Patrick; Stein,Frederick; Laino,Teodoro;
 Khaliullin,Rustam Z.; Schuett,Ole; Schiffmann,Florian; Golze,Dorothea;
 Wilhelm,Jan; Chulkov,Sergey; Bani-Hashemian,Mohammad Hossein;
 Weber,Valery; Borstnik,Urban; Taillefumier,Mathieu;
 Jakobovits,Alice Shoshana; Lazzaro,Alfio; Pabst,Hans; Mueller,Tiziano;
 Schade,Robert; Guidon,Manuel; Andermatt,Samuel; Holmberg,Nico;
 Schenter,Gregory K.; Hehn,Anna; Bussy,Augustin; Belleflamme,Fabian;
 Tabacchi,Gloria; Gloess,Andreas; Lass,Michael; Bethune,Iain;
 Mundy,Christopher J.; Plessl,Christian; Watkins,Matt;
 VandeVondele,Joost; Krack,Matthias; Hutter,Juerg. 
 The Journal of Chemical Physics, 152 (19), (2020). 
 CP2K: An electronic structure and molecular dynamics software package -
 Quickstep: Efficient and accurate electronic structure calculations.
 https://doi.org/10.1063/5.0007045

 Schuett, Ole; Messmer, Peter; Hutter, Juerg; VandeVondele, Joost. 
 Electronic Structure Calculations on Graphics Processing Units, John
 Wiley & Sons, Ltd, 173-190 (2016). 
 GPU-Accelerated Sparse Matrix-Matrix Multiplication for
 Linear Scaling Density Functional Theory.
 https://doi.org/10.1002/9781118670712.ch8

 Borstnik, U; VandeVondele, J; Weber, V; Hutter, J. 
 PARALLEL COMPUTING, 40 (5-6), 47-58 (2014). 
 Sparse matrix multiplication: The distributed block-compressed sparse
 row library.
 https://doi.org/10.1016/j.parco.2014.03.012

 Hutter, J; Iannuzzi, M; Schiffmann, F; VandeVondele, J. 
 WIREs Comput Mol Sci., 4 (1), 15-25 (2014). 
 CP2K: atomistic simulations of condensed matter systems.
 https://doi.org/10.1002/wcms.1159

 Marek, A; Blum, V; Johanni, R; Havu, V; Lang, B; Auckenthaler, T;
 Heinecke, A; Bungartz, H; Lederer, H. 
 Journal of Physics: Condensed Matter, 26 (21), (2014). 
 The ELPA library: scalable parallel eigenvalue solutions for
 electronic structure
 theory and computational science.
 https://doi.org/10.1088/0953-8984/26/21/213201

 Guidon, M; Hutter, J; VandeVondele, J. 
 JOURNAL OF CHEMICAL THEORY AND COMPUTATION, 5 (11), 3010-3021 (2009). 
 Robust Periodic Hartree-Fock Exchange for Large-Scale Simulations Using
 Gaussian Basis Sets.
 https://doi.org/10.1021/ct900494g

 Guidon, M; Schiffmann, F; Hutter, J; VandeVondele, J. 
 JOURNAL OF CHEMICAL PHYSICS, 128 (21), 214104 (2008). 
 Ab initio molecular dynamics using hybrid density functionals.
 https://doi.org/10.1063/1.2931945

 Kuhne, TD; Krack, M; Mohamed, FR; Parrinello, M. 
 PHYSICAL REVIEW LETTERS, 98 (6), 066401 (2007). 
 Efficient and accurate Car-Parrinello-like approach to
 Born-Oppenheimer molecular dynamics.
 https://doi.org/10.1103/PhysRevLett.98.066401

 Laino, T; Mohamed, F; Laio, A; Parrinello, M. 
 JOURNAL OF CHEMICAL THEORY AND COMPUTATION, 2 (5), 1370-1378 (2006). 
 An efficient linear-scaling electrostatic coupling for treating
 periodic boundary conditions in QM/MM simulations.
 https://doi.org/10.1021/ct6001169

 Laino, T; Mohamed, F; Laio, A; Parrinello, M. 
 JOURNAL OF CHEMICAL THEORY AND COMPUTATION, 1 (6), 1176-1184 (2005). 
 An efficient real space multigrid QM/MM electrostatic coupling.
 https://doi.org/10.1021/ct050123f

 Krack, M. 
 THEORETICAL CHEMISTRY ACCOUNTS, 114 (1-3), 145-152 (2005). 
 Pseudopotentials for H to Kr optimized for gradient-corrected
 exchange-correlation functionals.
 https://doi.org/10.1007/s00214-005-0655-y

 VandeVondele, J; Krack, M; Mohamed, F; Parrinello, M; Chassaing, T;
 Hutter, J. COMPUTER PHYSICS COMMUNICATIONS, 167 (2), 103-128 (2005). 
 QUICKSTEP: Fast and accurate density functional calculations using a
 mixed Gaussian and plane waves approach.
 https://doi.org/10.1016/j.cpc.2004.12.014

 Frigo, M; Johnson, SG. 
 PROCEEDINGS OF THE IEEE, 93 (2), 216-231 (2005). 
 The design and implementation of FFTW3.
 https://doi.org/10.1109/JPROC.2004.840301

 Kolafa, J. 
 JOURNAL OF COMPUTATIONAL CHEMISTRY, 25 (3), 335-342 (2004). 
 Time-reversible always stable predictor-corrector method for molecular dynamics of polarizable molecules.
 https://doi.org/10.1002/jcc.10385

 VandeVondele, J; Hutter, J. 
 JOURNAL OF CHEMICAL PHYSICS, 118 (10), 4365-4369 (2003). 
 An efficient orbital transformation method for electronic structure
 calculations.
 https://doi.org/10.1063/1.1543154

 Hartwigsen, C; Goedecker, S; Hutter, J. 
 PHYSICAL REVIEW B, 58 (7), 3641-3662 (1998). 
 Relativistic separable dual-space Gaussian pseudopotentials from H to Rn.
 https://doi.org/10.1103/PhysRevB.58.3641

 Lippert, G; Hutter, J; Parrinello, M. 
 MOLECULAR PHYSICS, 92 (3), 477-487 (1997). 
 A hybrid Gaussian and plane wave density functional scheme.
 https://doi.org/10.1080/002689797170220

 Perdew, JP; Burke, K; Ernzerhof, M. 
 PHYSICAL REVIEW LETTERS, 77 (18), 3865-3868 (1996). 
 Generalized gradient approximation made simple.
 https://doi.org/10.1103/PhysRevLett.77.3865

 Goedecker, S; Teter, M; Hutter, J. 
 PHYSICAL REVIEW B, 54 (3), 1703-1710 (1996). 
 Separable dual-space Gaussian pseudopotentials.
 https://doi.org/10.1103/PhysRevB.54.1703

 ESSMANN, U; PERERA, L; BERKOWITZ, ML; DARDEN, T; LEE, H; PEDERSEN, LG. 
 JOURNAL OF CHEMICAL PHYSICS, 103 (19), 8577-8593 (1995). 
 A SMOOTH PARTICLE MESH EWALD METHOD.
 https://doi.org/10.1063/1.470117

 BLOCHL, PE. 
 JOURNAL OF CHEMICAL PHYSICS, 103 (17), 7422-7428 (1995). 
 ELECTROSTATIC DECOUPLING OF PERIODIC IMAGES OF PLANE-WAVE-EXPANDED
 DENSITIES AND DERIVED ATOMIC POINT CHARGES.
 https://doi.org/10.1063/1.470314


 -------------------------------------------------------------------------------
 -                                                                             -
 -                                T I M I N G                                  -
 -                                                                             -
 -------------------------------------------------------------------------------
 SUBROUTINE                       CALLS  ASD         SELF TIME        TOTAL TIME
                                MAXIMUM       AVERAGE  MAXIMUM  AVERAGE  MAXIMUM
 CP2K                                 1  1.0    1.145    1.185 1682.312 1682.315
 qs_mol_dyn_low                       1  2.0    0.460    0.469 1627.035 1628.702
 velocity_verlet                      6  3.0    1.988    2.100 1367.318 1367.425
 qs_forces                            7  3.9    0.544    0.547 1101.518 1101.522
 rebuild_ks_matrix                   63  8.5    0.015    0.016 1014.923 1014.938
 qs_ks_build_kohn_sham_matrix        63  9.5    1.761    1.858 1014.908 1014.923
 hfx_ks_matrix                       63 10.5    0.792    0.793  789.237  789.237
 qs_energies                          7  4.9    0.712    0.714  594.212  594.212
 scf_env_do_scf                       7  5.9    0.505    0.506  572.686  572.686
 qs_ks_update_qs_env                 63  7.8    0.055    0.056  509.252  509.266
 qs_ks_update_qs_env_forces           7  4.9    0.055    0.055  505.823  505.824
 derivatives_four_center              7  8.9    0.334    0.858  454.565  454.566
 derivatives_four_center_main         7  9.9    0.638    0.826  452.904  452.904
 derivatives_four_center_bin        451 10.9  443.243  449.676  443.243  449.676
 scf_env_do_scf_inner_loop           56  6.8    1.490    1.496  359.451  359.509
 integrate_four_center               63 11.5    2.520    3.055  332.769  332.769
 integrate_four_center_main          63 12.5    0.081    0.277  318.593  320.970
 integrate_four_center_bin         4032 13.5  318.512  320.910  318.512  320.910
 qmmm_forces                          7  3.9    0.393    0.444  297.385  297.387
 qmmm_forces_with_gaussian            7  4.9   10.113   10.229  292.140  294.544
 init_scf_loop                        7  6.9    0.192    0.193  212.669  212.669
 qmmm_el_coupling                     7  3.9    0.073    0.238  208.191  210.038
 qmmm_elec_with_gaussian              7  4.9    9.402    9.696  208.075  209.948
 qmmm_force_with_gaussian_low         7  5.9    0.000    0.000  204.866  205.497
 pw_transfer                       1337 12.0    0.234    0.253  170.932  176.330
 fft_wrap_pw1pw2                   1113 13.1    0.178    0.183  166.911  172.383
 qmmm_forces_gaussian_low_R           7  6.9    0.010    0.028  170.874  171.410
 qmmm_forces_with_gaussian_LG         7  7.9  170.864  171.410  170.864  171.410
 fft_wrap_pw1pw2_200                707 14.4   18.921   19.651  163.913  169.351
 qmmm_elec_with_gaussian_low          7  5.9    0.000    0.000  136.707  137.181
 qs_vxc_create                       63 10.5    0.457    0.458  135.717  135.725
 xc_vxc_pw_create                    63 11.5    1.635    2.407  135.260  135.267
 fft3d_ps                          1113 15.1   70.561   73.451  118.169  123.744
 qmmm_elec_gaussian_low_R             7  6.9    0.037    0.088  122.857  123.224
 qmmm_elec_with_gaussian_LG           7  7.9  122.820  123.192  122.820  123.192
 xc_rho_set_and_dset_create          63 12.5    1.765    1.855   65.666   71.181
 pw_restrict_s3                      21  5.9   19.447   20.356   68.907   70.746
 pw_integral_ab                    2967  7.5   59.373   61.682   60.097   62.305
 qs_rho_update_rho                   63  7.9    0.158    0.160   58.154   58.163
 calculate_rho_elec                  63  8.9    0.338    0.371   57.995   58.004
 qmmm_elec_with_gaussian:spline       7  5.9    0.020    0.020   53.245   55.132
 pw_prolongate_s3                    21  6.9   14.284   15.045   53.225   55.112
 density_rs2pw                       63  9.9    0.075    0.119   50.754   53.570
 qmmm_env_create                      1  2.0    8.132    8.162   52.512   52.515
 sum_up_and_integrate                63 10.5    1.014    1.020   50.444   50.462
 integrate_v_rspace                  63 11.5    0.779    0.827   49.429   49.451
 rs_pw_transfer                     546 11.8    0.092    0.102   43.649   46.386
 fist_init                            1  3.0    0.040    0.053   40.625   40.625
 potential_pw2rs                     63 12.5    0.137    0.139   39.167   39.189
 qmmm_forces_gaussian_low_G           7  6.9   33.992   34.360   33.992   34.360
 -------------------------------------------------------------------------------

 The number of warnings for this run is : 1
 
 -------------------------------------------------------------------------------
  **** **** ******  **  PROGRAM ENDED AT                 2021-09-06 15:17:46.897
 ***** ** ***  *** **   PROGRAM RAN ON                                 nid001063
 **    ****   ******    PROGRAM RAN BY                                     hjbio
 ***** **    ** ** **   PROGRAM PROCESS ID                                 95598
  **** **  *******  **  PROGRAM STOPPED IN /lus/cls01095/work/d118/d118/hjbio/qm
                                           mm-benchmarking/archer2/CPU/cp2kMD/CB
                                           D_PHY-PBE0/6STEPS/1NODES/32CPN/1THREA
                                           DS
