 DBCSR| CPU Multiplication driver                                           BLAS
 DBCSR| Multrec recursion limit                                              512
 DBCSR| Multiplication stack size                                           1000
 DBCSR| Maximum elements for images                                    UNLIMITED
 DBCSR| Multiplicative factor virtual images                                   1
 DBCSR| Use multiplication densification                                       T
 DBCSR| Multiplication size stacks                                             3
 DBCSR| Use memory pool for CPU allocation                                     F
 DBCSR| Number of 3D layers                                               SINGLE
 DBCSR| Use MPI memory allocation                                              F
 DBCSR| Use RMA algorithm                                                      F
 DBCSR| Use Communication thread                                               T
 DBCSR| Communication thread load                                             87
 DBCSR| MPI: My node id                                                        0
 DBCSR| MPI: Number of nodes                                                 128
 DBCSR| OMP: Current number of threads                                         1
 DBCSR| OMP: Max number of threads                                             1
 DBCSR| Split modifier for TAS multiplication algorithm                  1.0E+00


  **** **** ******  **  PROGRAM STARTED AT               2021-12-08 16:34:28.155
 ***** ** ***  *** **   PROGRAM STARTED ON                             nid001774
 **    ****   ******    PROGRAM STARTED BY                                 hjbio
 ***** **    ** ** **   PROGRAM PROCESS ID                                103883
  **** **  *******  **  PROGRAM STARTED IN /mnt/lustre/a2fs-work1/work/d118/d118
                                           /hjbio/CP2K/qmmm-benchmarking/CPU/cp2
                                           kMD/ClC-253-B3LYP/1STEPS/1NODES/128CP
                                           N/1THREADS

 CP2K| version string:                                          CP2K version 8.2
 CP2K| source code revision number:                                  git:310b7ab
 CP2K| cp2kflags: omp libint fftw3 libxc elpa parallel mpi3 scalapack plumed2   
 CP2K| is freely available from                            https://www.cp2k.org/
 CP2K| Program compiled at                          Thu Dec  2 10:30:45 GMT 2021
 CP2K| Program compiled on                                                  ln02
 CP2K| Program compiled for                                              ARCHER2
 CP2K| Data directory path         /work/y07/shared/apps/core/cp2k/cp2k-8.2/data
 CP2K| Input file name                                          ClC-253-cp2k.inp

 GLOBAL| Force Environment number                                              1
 GLOBAL| Basis set file name                                     EMSL_BASIS_SETS
 GLOBAL| Potential file name                                           POTENTIAL
 GLOBAL| MM Potential file name                                     MM_POTENTIAL
 GLOBAL| Coordinate file name                                            ClC.pdb
 GLOBAL| Method name                                                        CP2K
 GLOBAL| Project name                                              ClC-253-B3LYP
 GLOBAL| Run type                                                             MD
 GLOBAL| FFT library                                                       FFTW3
 GLOBAL| Diagonalization library                                            ELPA
 GLOBAL| Minimum number of eigenvectors for ELPA usage                        16
 GLOBAL| Orthonormality check for eigenvectors                          DISABLED
 GLOBAL| Matrix multiplication library                                    SCALAP
 GLOBAL| All-to-all communication in single precision                          F
 GLOBAL| FFTs using library dependent lengths                                  F
 GLOBAL| Grid backend                                                       AUTO
 GLOBAL| Global print level                                                  LOW
 GLOBAL| MPI I/O enabled                                                       T
 GLOBAL| Total number of message passing processes                           128
 GLOBAL| Number of threads for this process                                    1
 GLOBAL| This output is from process                                           0
 GLOBAL| CPU model name                          AMD EPYC 7742 64-Core Processor
 GLOBAL| CPUID                                                              1002

 MEMORY| system memory details [Kb]
 MEMORY|                        rank 0           min           max       average
 MEMORY| MemTotal            263528088     263528088     263528088     263528088
 MEMORY| MemFree             244188824     244188824     244188824     244188824
 MEMORY| Buffers                 33376         33376         33376         33376
 MEMORY| Cached                 777552        777552        777552        777552
 MEMORY| Slab                  1529176       1529176       1529176       1529176
 MEMORY| SReclaimable            85988         85988         85988         85988
 MEMORY| MemLikelyFree       245085740     245085740     245085740     245085740



                      ************* ******** ***********   
                     ************* **********************  
                     ****     **** ****      ***********   
                     ******** ****  *******     ****       
                     *******  ****   *******   ****        
                     ****     ****       ****  ****        
                     ****     **** **********  ****        
                      ****     **** ********    ****       
                     FRONTIERS IN SIMULATION TECHNOLOGY    
                                                           
                        C.J. Mundy, S. Balasubramanian,    
                     Ken Bagchi, J. Hutter, Ari Seitsonen  
                      IFW Kuo, T. Laino, J. VandeVondele   
                                 Version 1.0               

                                                           


 EWALD| Summation is done by:                                               SPME
 EWALD| Alpha parameter [       ANGSTROM^-1]                              0.4000
 EWALD| Real Space Cutoff [          ANGSTROM]                            8.4348
 EWALD| G-space max. Miller index                         80        80        80
 EWALD| Spline interpolation order                                             6

 FORCEFIELD| WARNING: A non Critical ForceField parameter is missing! CP2K GOES!
 FORCEFIELD| Non critical parameters are:Urey-Bradley,Torsions,Impropers, Opbends and 1-4
 FORCEFIELD| All missing parameters will not contribute to the potential energy!
 FORCEFIELD| Activate the print key FF_INFO to have a list of missing parameters

 CHARGE_INFO| Total Charge of the Classical System:                     2.369895

 SPLINE_INFO| Generating 85491 splines for NONBONDED14 interactions 
              Due to 413 different atomic kinds
  ...8549  ...17098  ...25647  ...34196  ...42745  ...51294  ...59843  ...68392  ...76941  ...85490
 SPLINE_INFO| Number of unique splines computed:            254
 SPLINE_INFO| Done

 SPLINE_INFO| Generating 85491 splines for NONBONDED interactions 
              Due to 413 different atomic kinds
  ...8549  ...17098  ...25647  ...34196  ...42745  ...51294  ...59843  ...68392  ...76941  ...85490
 SPLINE_INFO| Number of unique splines computed:            254
 SPLINE_INFO| Done

 *******************************************************************************
 *******************************************************************************
 **                                                                           **
 **     #####                         ##              ##                      **
 **    ##   ##            ##          ##              ##                      **
 **   ##     ##                       ##            ######                    **
 **   ##     ##  ##   ##  ##   #####  ##  ##   ####   ##    #####    #####    **
 **   ##     ##  ##   ##  ##  ##      ## ##   ##      ##   ##   ##  ##   ##   **
 **   ##  ## ##  ##   ##  ##  ##      ####     ###    ##   ######   ######    **
 **    ##  ###   ##   ##  ##  ##      ## ##      ##   ##   ##       ##        **
 **     #######   #####   ##   #####  ##  ##  ####    ##    #####   ##        **
 **           ##                                                    ##        **
 **                                                                           **
 **                                                ... make the atoms dance   **
 **                                                                           **
 **            Copyright (C) by CP2K developers group (2000-2021)             **
 **                      J. Chem. Phys. 152, 194103 (2020)                    **
 **                                                                           **
 *******************************************************************************


 TOTAL NUMBERS AND MAXIMUM NUMBERS

  Total number of            - Atomic kinds:                                   6
                             - Atoms:                                        253
                             - Shell sets:                                   876
                             - Shells:                                      1109
                             - Primitive Cartesian functions:               1967
                             - Cartesian basis functions:                   2429
                             - Spherical basis functions:                   2313

  Maximum angular momentum of- Orbital basis functions:                        2
                             - Local part of the GTH pseudopotential:          2
                             - Non-local part of the GTH pseudopotential:      2


 SCF PARAMETERS         Density guess:                                   RESTART
                        --------------------------------------------------------
                        max_scf:                                              50
                        max_scf_history:                                       0
                        max_diis:                                              4
                        --------------------------------------------------------
                        eps_scf:                                        1.00E-06
                        eps_scf_history:                                0.00E+00
                        eps_diis:                                       1.00E-01
                        eps_eigval:                                     1.00E-05
                        --------------------------------------------------------
                        level_shift [a.u.]:                                 0.00
                        --------------------------------------------------------
                        Outer loop SCF in use 
                        No variables optimised in outer loop
                        eps_scf                                         1.00E-06
                        max_scf                                               20
                        No outer loop optimization
                        step_size                                       5.00E-01

 *******************************************************************************
 *******************************************************************************
 **                                                                           **
 **             #######  ##     ## ##     ## ##     ##                        **
 **            ##     ## ###   ### ###   ### ###   ###                        **
 **            ##     ## #### #### #### #### #### ####                        **
 **            ##     ## ## ### ## ## ### ## ## ### ##                        **
 **            ##  ## ## ##     ## ##     ## ##     ##                        **
 **            ##    ##  ##     ## ##     ## ##     ##  T.Laino and F.Mohamed **
 **             ##### ## ##     ## ##     ## ##     ##  2005 - 2015           **
 **                                                                           **
 **                                                     Calculation Started.. **
 *******************************************************************************
 *******************************************************************************

 MD_PAR| Molecular dynamics protocol (MD input parameters)
 MD_PAR| Ensemble type                                                       NVE
 MD_PAR| Number of time steps                                                  1
 MD_PAR| Time step [fs]                                                 1.000000
 MD_PAR| Temperature [K]                                              300.000000
 MD_PAR| Temperature tolerance [K]                                      0.000000
 MD_PAR| Print MD information every                                    1 step(s)
 MD_PAR| File type   Print frequency [steps]                          File names
 MD_PAR| Coordinates          1                          ClC-253-B3LYP-pos-1.xyz
 MD_PAR| Velocities           1                          ClC-253-B3LYP-vel-1.xyz
 MD_PAR| Energies             1                             ClC-253-B3LYP-1.ener
 MD_PAR| Dump                20                          ClC-253-B3LYP-1.restart

 ROT| Rotational analysis information
 ROT| Principal axes and moments of inertia [a.u.]
 ROT|                           1                   2                   3
 ROT| Eigenvalues      1.18228221563E+13   1.18772146411E+13   1.55923586977E+13
 ROT|      x             -0.973134378681     -0.230223222672      0.002597839626
 ROT|      y             -0.230225448758      0.973137141292     -0.000589052320
 ROT|      z              0.002392440703      0.001171315857      0.999996452117
 ROT| Number of rotovibrational vectors                                        6

 DOF| Calculation of degrees of freedom
 DOF| Number of atoms                                                     150925
 DOF| Number of intramolecular constraints                                     0
 DOF| Number of intermolecular constraints                                     0
 DOF| Invariants (translations + rotations)                                    3
 DOF| Degrees of freedom                                                  452772

 DOF| Restraints information
 DOF| Number of intramolecular restraints                                      0
 DOF| Number of intermolecular restraints                                      0

 MD_VEL| Velocities initialization
 MD_VEL| Initial temperature [K]                                      300.000000
 MD_VEL| COM velocity            -0.0000000000     0.0000000000     0.0000000000

  Translating the system in order to center the QM fragment in the QM box.

 Number of electrons:                                                        654
 Number of occupied orbitals:                                                327
 Number of molecular orbitals:                                               327

 Number of orbital functions:                                               2313
 Number of independent orbital functions:                                   2313

 Extrapolation method: initial_guess


 SCF WAVEFUNCTION OPTIMIZATION

  ----------------------------------- OT ---------------------------------------
  Minimizer      : DIIS                : direct inversion
                                         in the iterative subspace
                                         using   7 DIIS vectors
                                         safer DIIS on
  Preconditioner : FULL_ALL            : diagonalization, state selective
  Precond_solver : DEFAULT
  stepsize       :    0.15000000                  energy_gap     :    0.08000000
  eps_taylor     :   0.10000E-15                  max_taylor     :             4
  ----------------------------------- OT ---------------------------------------

  Step     Update method      Time    Convergence         Total energy    Change
  ------------------------------------------------------------------------------
  Decoupling Energy:                                               0.0652965565
  Recoupling Energy:                                              -0.0067743629

 *** WARNING in hfx_energy_potential.F:592 :: The Kohn Sham matrix is not  ***
 *** 100% occupied. This may result in incorrect Hartree-Fock results. Try ***
 *** to decrease EPS_PGF_ORB and EPS_FILTER_MATRIX in the QS section. For  ***
 *** more information see FAQ: https://www.cp2k.org/faq:hfx_eps_warning    ***

     1 OT DIIS     0.15E+00   86.9     0.00000147     -1097.2146398364 -1.10E+03
  Decoupling Energy:                                               0.0652912916
  Recoupling Energy:                                              -0.0067742598
     2 OT DIIS     0.15E+00   45.2     0.00000228     -1097.2146398847 -4.83E-08
  Decoupling Energy:                                               0.0652926349
  Recoupling Energy:                                              -0.0067742782
     3 OT DIIS     0.15E+00   45.4     0.00000108     -1097.2146399880 -1.03E-07
  Decoupling Energy:                                               0.0652927569
  Recoupling Energy:                                              -0.0067742854
     4 OT DIIS     0.15E+00   45.5     0.00000091     -1097.2146400405 -5.25E-08

  *** SCF run converged in     4 steps ***


  Electronic density on regular grids:       -654.0001611163       -0.0001611163
  Core density on regular grids:              654.9999999993       -0.0000000007
  Total charge density on r-space grids:        0.9998388831
  Total charge density g-space grids:           0.9998388831

  Overlap energy of the core charge distribution:               0.00004213532864
  Self energy of the core charge distribution:              -2459.11679630764229
  Core Hamiltonian energy:                                    757.75939632522477
  Hartree energy:                                            1000.45244191768825
  Exchange-correlation energy:                               -243.02999618370615
  Hartree-Fock Exchange energy:                               -54.33827195783504
  QM/MM Electrostatic energy:                                 -98.94145596953153

  Total energy:                                             -1097.21464004047311

  outer SCF iter =    1 RMS gradient =   0.91E-06 energy =      -1097.2146400405
  outer SCF loop converged in   1 iterations or    4 steps

  Decoupling Energy:                                               0.0652923664
  Recoupling Energy:                                              -0.0067742723

 ENERGY| Total FORCE_EVAL ( QMMM ) energy [a.u.]:          -1468.298508616266190

 MD_INI| MD initialization
 MD_INI| Potential energy [hartree]                          -0.146829850862E+04
 MD_INI| Total kinetic energy [hartree]                       0.215076797492E+03
 MD_INI| QM kinetic energy [hartree]                          0.369606607592E+00
 MD_INI| Total temperature [K]                                        300.000000
 MD_INI| QM temperature [K]                                           307.542546
 MD_INI| Cell volume [bohr^3]                                 9.853827160554E+06
 MD_INI| Cell volume [ang^3]                                  1.460186515536E+06
 MD_INI| Cell lengths [bohr]      2.39870119E+02  2.39870119E+02  1.71258698E+02
 MD_INI| Cell lengths [ang]       1.26933800E+02  1.26933800E+02  9.06262000E+01
 MD_INI| Cell angles [deg]        9.00000000E+01  9.00000000E+01  9.00000000E+01

  Translating the system in order to center the QM fragment in the QM box.

 Number of electrons:                                                        654
 Number of occupied orbitals:                                                327
 Number of molecular orbitals:                                               327

 Number of orbital functions:                                               2313
 Number of independent orbital functions:                                   2313

 Extrapolation method: ASPC


 SCF WAVEFUNCTION OPTIMIZATION

  ----------------------------------- OT ---------------------------------------
  Minimizer      : DIIS                : direct inversion
                                         in the iterative subspace
                                         using   7 DIIS vectors
                                         safer DIIS on
  Preconditioner : FULL_ALL            : diagonalization, state selective
  Precond_solver : DEFAULT
  stepsize       :    0.15000000                  energy_gap     :    0.08000000
  eps_taylor     :   0.10000E-15                  max_taylor     :             4
  ----------------------------------- OT ---------------------------------------

  Step     Update method      Time    Convergence         Total energy    Change
  ------------------------------------------------------------------------------
  Decoupling Energy:                                               0.0654977898
  Recoupling Energy:                                              -0.0067751650

 *** WARNING in hfx_energy_potential.F:592 :: The Kohn Sham matrix is not  ***
 *** 100% occupied. This may result in incorrect Hartree-Fock results. Try ***
 *** to decrease EPS_PGF_ORB and EPS_FILTER_MATRIX in the QS section. For  ***
 *** more information see FAQ: https://www.cp2k.org/faq:hfx_eps_warning    ***

     1 OT DIIS     0.15E+00   76.0     0.00039341     -1096.7916980265 -1.10E+03
  Decoupling Energy:                                               0.0653301297
  Recoupling Energy:                                              -0.0067715231
     2 OT DIIS     0.15E+00   44.4     0.00021598     -1096.8028091283 -1.11E-02
  Decoupling Energy:                                               0.0655799298
  Recoupling Energy:                                              -0.0067741026
     3 OT DIIS     0.15E+00   44.4     0.00035740     -1096.8033039357 -4.95E-04
  Decoupling Energy:                                               0.0653764852
  Recoupling Energy:                                              -0.0067727351
     4 OT DIIS     0.15E+00   44.4     0.00011433     -1096.8053648813 -2.06E-03
  Decoupling Energy:                                               0.0653370463
  Recoupling Energy:                                              -0.0067710846
     5 OT DIIS     0.15E+00   44.4     0.00003630     -1096.8056470366 -2.82E-04
  Decoupling Energy:                                               0.0653622179
  Recoupling Energy:                                              -0.0067719019
     6 OT DIIS     0.15E+00   44.4     0.00002251     -1096.8056710487 -2.40E-05
  Decoupling Energy:                                               0.0653570149
  Recoupling Energy:                                              -0.0067717605
     7 OT DIIS     0.15E+00   44.4     0.00000833     -1096.8056819662 -1.09E-05
  Decoupling Energy:                                               0.0653435166
  Recoupling Energy:                                              -0.0067715343
     8 OT DIIS     0.15E+00   44.4     0.00000521     -1096.8056860115 -4.05E-06
  Decoupling Energy:                                               0.0653463767
  Recoupling Energy:                                              -0.0067717022
     9 OT DIIS     0.15E+00   44.4     0.00000484     -1096.8056876755 -1.66E-06
  Decoupling Energy:                                               0.0653376665
  Recoupling Energy:                                              -0.0067715744
    10 OT DIIS     0.15E+00   44.4     0.00000367     -1096.8056893840 -1.71E-06
  Decoupling Energy:                                               0.0653304000
  Recoupling Energy:                                              -0.0067715129
    11 OT DIIS     0.15E+00   44.4     0.00000341     -1096.8056914599 -2.08E-06
  Decoupling Energy:                                               0.0653234137
  Recoupling Energy:                                              -0.0067715029
    12 OT DIIS     0.15E+00   44.4     0.00000334     -1096.8056931409 -1.68E-06
  Decoupling Energy:                                               0.0653159638
  Recoupling Energy:                                              -0.0067714460
    13 OT DIIS     0.15E+00   44.4     0.00000317     -1096.8056949515 -1.81E-06
  Decoupling Energy:                                               0.0653053889
  Recoupling Energy:                                              -0.0067713832
    14 OT DIIS     0.15E+00   44.4     0.00000277     -1096.8056969620 -2.01E-06
  Decoupling Energy:                                               0.0652930184
  Recoupling Energy:                                              -0.0067713040
    15 OT DIIS     0.15E+00   44.4     0.00000250     -1096.8056989651 -2.00E-06
  Decoupling Energy:                                               0.0652804329
  Recoupling Energy:                                              -0.0067712343
    16 OT DIIS     0.15E+00   44.4     0.00000224     -1096.8057007370 -1.77E-06
  Decoupling Energy:                                               0.0652659196
  Recoupling Energy:                                              -0.0067711664
    17 OT DIIS     0.15E+00   44.4     0.00000188     -1096.8057025618 -1.82E-06
  Decoupling Energy:                                               0.0652556334
  Recoupling Energy:                                              -0.0067710616
    18 OT DIIS     0.15E+00   44.4     0.00000183     -1096.8057033999 -8.38E-07
  Decoupling Energy:                                               0.0652439491
  Recoupling Energy:                                              -0.0067710114
    19 OT DIIS     0.15E+00   44.4     0.00000155     -1096.8057044437 -1.04E-06
  Decoupling Energy:                                               0.0652342725
  Recoupling Energy:                                              -0.0067709542
    20 OT DIIS     0.15E+00   44.4     0.00000152     -1096.8057050735 -6.30E-07
  Decoupling Energy:                                               0.0652274787
  Recoupling Energy:                                              -0.0067708943
    21 OT DIIS     0.15E+00   44.4     0.00000140     -1096.8057055142 -4.41E-07
  Decoupling Energy:                                               0.0652205588
  Recoupling Energy:                                              -0.0067708486
    22 OT DIIS     0.15E+00   44.4     0.00000133     -1096.8057058828 -3.69E-07
  Decoupling Energy:                                               0.0652145566
  Recoupling Energy:                                              -0.0067708050
    23 OT DIIS     0.15E+00   44.4     0.00000119     -1096.8057061970 -3.14E-07
  Decoupling Energy:                                               0.0652084931
  Recoupling Energy:                                              -0.0067707610
    24 OT DIIS     0.15E+00   44.4     0.00000116     -1096.8057065141 -3.17E-07
  Decoupling Energy:                                               0.0652023933
  Recoupling Energy:                                              -0.0067707108
    25 OT DIIS     0.15E+00   44.4     0.00000108     -1096.8057068170 -3.03E-07
  Decoupling Energy:                                               0.0651961402
  Recoupling Energy:                                              -0.0067706552
    26 OT DIIS     0.15E+00   44.4     0.00000105     -1096.8057071345 -3.17E-07
  Decoupling Energy:                                               0.0651922341
  Recoupling Energy:                                              -0.0067706331
    27 OT DIIS     0.15E+00   44.4     0.00000101     -1096.8057073503 -2.16E-07
  Decoupling Energy:                                               0.0651865932
  Recoupling Energy:                                              -0.0067705841
    28 OT DIIS     0.15E+00   44.4     0.00000100     -1096.8057076299 -2.80E-07

  *** SCF run converged in    28 steps ***


  Electronic density on regular grids:       -654.0002714725       -0.0002714725
  Core density on regular grids:              654.9999999988       -0.0000000012
  Total charge density on r-space grids:        0.9997285263
  Total charge density g-space grids:           0.9997285263

  Overlap energy of the core charge distribution:               0.00004340930318
  Self energy of the core charge distribution:              -2459.11679630764229
  Core Hamiltonian energy:                                    757.53689445528585
  Hartree energy:                                            1000.61837559564356
  Exchange-correlation energy:                               -242.98563651926551
  Hartree-Fock Exchange energy:                               -54.32729775924444
  QM/MM Electrostatic energy:                                 -98.53129050399879

  Total energy:                                             -1096.80570762991852

  outer SCF iter =    1 RMS gradient =   0.10E-05 energy =      -1096.8057076299
  outer SCF loop converged in   1 iterations or   28 steps

  Decoupling Energy:                                               0.0651833402
  Recoupling Energy:                                              -0.0067705547

 ENERGY| Total FORCE_EVAL ( QMMM ) energy [a.u.]:          -1446.419720426905542

 MD| ***************************************************************************
 MD| Step number                                                               1
 MD| Time [fs]                                                          1.000000
 MD| Conserved quantity [hartree]                            -0.124771269465E+04
 MD| ---------------------------------------------------------------------------
 MD|                                          Instantaneous             Averages
 MD| CPU time per MD step [s]                   1812.735222          1812.735222
 MD| Energy drift per atom [K]           0.115263060206E+02   0.000000000000E+00
 MD| Potential energy [hartree]         -0.144641972043E+04  -0.144641972043E+04
 MD| Total kinetic energy [hartree]      0.198707025772E+03   0.198707025772E+03
 MD| QM kinetic energy [hartree]         0.372936161594E+00   0.372936161594E+00
 MD| Total temperature [K]                       277.166614           277.166614
 MD| QM temperature [K]                          310.313004           310.313004
 MD| ***************************************************************************

 -------------------------------------------------------------------------------
 -                                                                             -
 -                                DBCSR STATISTICS                             -
 -                                                                             -
 -------------------------------------------------------------------------------
 COUNTER                                    TOTAL       BLAS       SMM       ACC
 flops    18 x     7 x     7                 3528     100.0%      0.0%      0.0%
 flops     5 x     7 x     7               134260     100.0%      0.0%      0.0%
 flops    18 x    18 x     7               163296     100.0%      0.0%      0.0%
 flops    14 x     7 x     7               315560     100.0%      0.0%      0.0%
 flops    18 x     7 x    18               353808     100.0%      0.0%      0.0%
 flops    39 x     7 x     7               642096     100.0%      0.0%      0.0%
 flops    18 x    32 x    32               737280     100.0%      0.0%      0.0%
 flops    64 x     7 x     7              2107392     100.0%      0.0%      0.0%
 flops    32 x     7 x     7              2634240     100.0%      0.0%      0.0%
 flops     5 x    18 x     7              3084480     100.0%      0.0%      0.0%
 flops    18 x     5 x     7              3129840     100.0%      0.0%      0.0%
 flops   295 x     7 x     7              4625600     100.0%      0.0%      0.0%
 flops    18 x    14 x     7              7112448     100.0%      0.0%      0.0%
 flops    14 x    18 x     7              7366464     100.0%      0.0%      0.0%
 flops    18 x    18 x    32              7464960     100.0%      0.0%      0.0%
 flops   286 x     7 x     7             13453440     100.0%      0.0%      0.0%
 flops     5 x     7 x    18             13464360     100.0%      0.0%      0.0%
 flops    18 x     7 x     5             13464360     100.0%      0.0%      0.0%
 flops    18 x    32 x    18             16174080     100.0%      0.0%      0.0%
 flops   290 x     7 x     7             18188800     100.0%      0.0%      0.0%
 flops    39 x     7 x   138             19590480     100.0%      0.0%      0.0%
 flops     5 x    32 x    32             28057600     100.0%      0.0%      0.0%
 flops    39 x     7 x    32             29352960     100.0%      0.0%      0.0%
 flops    39 x    32 x     7             29352960     100.0%      0.0%      0.0%
 flops    14 x     7 x    18             31370976     100.0%      0.0%      0.0%
 flops    18 x     7 x    14             31370976     100.0%      0.0%      0.0%
 flops    39 x     7 x   152             32366880     100.0%      0.0%      0.0%
 flops    64 x     7 x   138             64296960     100.0%      0.0%      0.0%
 flops    14 x    32 x    32             65945600     100.0%      0.0%      0.0%
 flops   295 x     7 x   138             77511840     100.0%      0.0%      0.0%
 flops    32 x     7 x   138             80371200     100.0%      0.0%      0.0%
 flops    39 x     7 x   143             81201120     100.0%      0.0%      0.0%
 flops    64 x    32 x     7             96337920     100.0%      0.0%      0.0%
 flops    64 x     7 x    32             96337920     100.0%      0.0%      0.0%
 flops    64 x     7 x   152            106229760     100.0%      0.0%      0.0%
 flops     5 x     5 x     7            111955200     100.0%      0.0%      0.0%
 flops    32 x     7 x    32            120422400     100.0%      0.0%      0.0%
 flops    32 x    32 x     7            120422400     100.0%      0.0%      0.0%
 flops   295 x     7 x   152            128063040     100.0%      0.0%      0.0%
 flops    32 x     7 x   152            132787200     100.0%      0.0%      0.0%
 flops     5 x    18 x    32            141004800     100.0%      0.0%      0.0%
 flops    18 x     5 x    32            143078400     100.0%      0.0%      0.0%
 flops   295 x     7 x    32            211456000     100.0%      0.0%      0.0%
 flops   295 x    32 x     7            211456000     100.0%      0.0%      0.0%
 flops   286 x     7 x   138            225441216     100.0%      0.0%      0.0%
 flops     5 x    14 x     7            250770240     100.0%      0.0%      0.0%
 flops    14 x     5 x     7            250834920     100.0%      0.0%      0.0%
 flops    64 x     7 x   143            266506240     100.0%      0.0%      0.0%
 flops   290 x     7 x   138            304792320     100.0%      0.0%      0.0%
 flops   295 x     7 x   143            321280960     100.0%      0.0%      0.0%
 flops    18 x    14 x    32            325140480     100.0%      0.0%      0.0%
 flops    32 x     7 x   143            333132800     100.0%      0.0%      0.0%
 flops    14 x    18 x    32            336752640     100.0%      0.0%      0.0%
 flops   286 x     7 x   152            372468096     100.0%      0.0%      0.0%
 flops     5 x     7 x     5            481393500     100.0%      0.0%      0.0%
 flops   290 x     7 x   152            503569920     100.0%      0.0%      0.0%
 flops    14 x    14 x     7            572370960     100.0%      0.0%      0.0%
 flops   286 x     7 x    32            615014400     100.0%      0.0%      0.0%
 flops   286 x    32 x     7            615014400     100.0%      0.0%      0.0%
 flops    18 x    32 x     5            615513600     100.0%      0.0%      0.0%
 flops     5 x    32 x    18            615513600     100.0%      0.0%      0.0%
 flops   290 x    32 x     7            831488000     100.0%      0.0%      0.0%
 flops   290 x     7 x    32            831488000     100.0%      0.0%      0.0%
 flops    39 x    32 x   138            895564800     100.0%      0.0%      0.0%
 flops   286 x     7 x   143            934437504     100.0%      0.0%      0.0%
 flops    14 x     7 x     5           1086809220     100.0%      0.0%      0.0%
 flops     5 x     7 x    14           1086809220     100.0%      0.0%      0.0%
 flops   290 x     7 x   143           1263342080     100.0%      0.0%      0.0%
 flops    39 x    32 x    32           1341849600     100.0%      0.0%      0.0%
 flops    18 x    32 x    14           1434101760     100.0%      0.0%      0.0%
 flops    14 x    32 x    18           1434101760     100.0%      0.0%      0.0%
 flops    39 x    32 x   152           1479628800     100.0%      0.0%      0.0%
 flops    14 x     7 x    14           2455671456     100.0%      0.0%      0.0%
 flops    64 x    32 x   138           2939289600     100.0%      0.0%      0.0%
 flops   295 x    32 x   138           3543398400     100.0%      0.0%      0.0%
 flops    32 x    32 x   138           3674112000     100.0%      0.0%      0.0%
 flops    39 x    32 x   143           3712051200     100.0%      0.0%      0.0%
 flops    64 x    32 x    32           4404019200     100.0%      0.0%      0.0%
 flops    64 x    32 x   152           4856217600     100.0%      0.0%      0.0%
 flops     5 x     5 x    32           5117952000     100.0%      0.0%      0.0%
 flops    32 x    32 x    32           5505024000     100.0%      0.0%      0.0%
 flops   295 x    32 x   152           5854310400     100.0%      0.0%      0.0%
 flops    32 x    32 x   152           6070272000     100.0%      0.0%      0.0%
 flops   295 x    32 x    32           9666560000     100.0%      0.0%      0.0%
 flops   286 x    32 x   138          10305884160     100.0%      0.0%      0.0%
 flops     5 x    14 x    32          11463782400     100.0%      0.0%      0.0%
 flops    14 x     5 x    32          11466739200     100.0%      0.0%      0.0%
 flops    64 x    32 x   143          12183142400     100.0%      0.0%      0.0%
 flops   290 x    32 x   138          13933363200     100.0%      0.0%      0.0%
 flops   295 x    32 x   143          14687129600     100.0%      0.0%      0.0%
 flops    32 x    32 x   143          15228928000     100.0%      0.0%      0.0%
 flops   286 x    32 x   152          17027112960     100.0%      0.0%      0.0%
 flops     5 x    32 x     5          22006560000     100.0%      0.0%      0.0%
 flops   290 x    32 x   152          23020339200     100.0%      0.0%      0.0%
 flops    14 x    14 x    32          26165529600     100.0%      0.0%      0.0%
 flops   286 x    32 x    32          28114944000     100.0%      0.0%      0.0%
 flops   290 x    32 x    32          38010880000     100.0%      0.0%      0.0%
 flops   286 x    32 x   143          42717143040     100.0%      0.0%      0.0%
 flops    14 x    32 x     5          49682707200     100.0%      0.0%      0.0%
 flops     5 x    32 x    14          49682707200     100.0%      0.0%      0.0%
 flops   290 x    32 x   143          57752780800     100.0%      0.0%      0.0%
 flops    14 x    32 x    14         112259266560     100.0%      0.0%      0.0%
 flops inhomo. stacks                 61151349168     100.0%      0.0%      0.0%
 flops total                       696.589258E+09     100.0%      0.0%      0.0%
 flops max/rank                      8.902003E+09     100.0%      0.0%      0.0%
 matmuls inhomo. stacks                     52272     100.0%      0.0%      0.0%
 matmuls total                           61947996     100.0%      0.0%      0.0%
 number of processed stacks               1299760     100.0%      0.0%      0.0%
 average stack size                                    47.7       0.0       0.0
 marketing flops                   793.975063E+09
 -------------------------------------------------------------------------------
 # multiplications                            644
 max memory usage/rank               1.855136E+09
 # max total images/rank                        2
 # max 3D layers                                1
 # MPI messages exchanged                 2390528
 MPI messages size (bytes):
  total size                       135.339131E+09
  min size                           0.000000E+00
  max size                         368.160000E+03
  average size                      56.614742E+03
 MPI breakdown and total messages size (bytes):
             size <=      128              715134                        0
       128 < size <=     8192              447902               3231873008
      8192 < size <=    32768              110532               1556627184
     32768 < size <=   131072              836640              42317352720
    131072 < size <=  4194304              280320              88233243120
   4194304 < size <= 16777216                   0                        0
  16777216 < size                               0                        0
 -------------------------------------------------------------------------------

 *** WARNING in dbcsr_mm.F:294 :: Using a non-square number of MPI ranks ***
 *** might lead to poor performance. Used ranks: 128 Suggested: 121 256  ***

 -------------------------------------------------------------------------------
 -                                                                             -
 -                      DBCSR MESSAGE PASSING PERFORMANCE                      -
 -                                                                             -
 -------------------------------------------------------------------------------
 ROUTINE             CALLS      AVE VOLUME [Bytes]
 MP_Bcast              103                     12.
 MP_Allreduce         3700                      9.
 MP_Alltoall          2245                  28863.
 MP_ISend            40544                  30326.
 MP_IRecv            40544                  29741.
 -------------------------------------------------------------------------------

 -------------------------------------------------------------------------------
 -                                                                             -
 -                                GRID STATISTICS                              -
 -                                                                             -
 -------------------------------------------------------------------------------
 LP    KERNEL             BACKEND                              COUNT     PERCENT
 1     collocate ortho    REF                                2605982      21.28%
 1     integrate ortho    REF                                2557491      20.88%
 0     collocate ortho    REF                                1781887      14.55%
 0     integrate ortho    REF                                1677068      13.69%
 2     integrate ortho    REF                                1406210      11.48%
 2     collocate ortho    REF                                1331201      10.87%
 3     integrate ortho    REF                                 372745       3.04%
 3     collocate ortho    REF                                 312849       2.55%
 0     collocate general  REF                                  64768       0.53%
 1     integrate general  REF                                  64768       0.53%
 4     integrate ortho    REF                                  43397       0.35%
 4     collocate ortho    REF                                  26554       0.22%
 5     integrate ortho    REF                                   1562       0.01%
 -------------------------------------------------------------------------------

 MEMORY| Estimated peak process memory [MiB]                                1841

 -------------------------------------------------------------------------------
 -                                                                             -
 -                         MESSAGE PASSING PERFORMANCE                         -
 -                                                                             -
 -------------------------------------------------------------------------------

 ROUTINE             CALLS      AVE VOLUME [Bytes]
 MP_Group                8
 MP_Bcast             8878               10200510.
 MP_Allreduce         1979                  21016.
 MP_Sync               207
 MP_Alltoall           712                6492149.
 MP_SendRecv           576                 103672.
 MP_ISendRecv        27178                  75875.
 MP_Wait             33528
 MP_comm_split           6
 MP_ISend             5738                 197931.
 MP_IRecv             5688                 199424.
 MP_Recv                45                 388584.
 -------------------------------------------------------------------------------


 -------------------------------------------------------------------------------
 -                                                                             -
 -                           R E F E R E N C E S                               -
 -                                                                             -
 -------------------------------------------------------------------------------
 
 CP2K version 8.2, the CP2K developers group (2021).
 CP2K is freely available from https://www.cp2k.org/ .

 Kuehne,Thomas D.; Iannuzzi,Marcella; Del Ben,Mauro;
 Rybkin,Vladimir V.; Seewald,Patrick; Stein,Frederick; Laino,Teodoro;
 Khaliullin,Rustam Z.; Schuett,Ole; Schiffmann,Florian; Golze,Dorothea;
 Wilhelm,Jan; Chulkov,Sergey; Bani-Hashemian,Mohammad Hossein;
 Weber,Valery; Borstnik,Urban; Taillefumier,Mathieu;
 Jakobovits,Alice Shoshana; Lazzaro,Alfio; Pabst,Hans; Mueller,Tiziano;
 Schade,Robert; Guidon,Manuel; Andermatt,Samuel; Holmberg,Nico;
 Schenter,Gregory K.; Hehn,Anna; Bussy,Augustin; Belleflamme,Fabian;
 Tabacchi,Gloria; Gloess,Andreas; Lass,Michael; Bethune,Iain;
 Mundy,Christopher J.; Plessl,Christian; Watkins,Matt;
 VandeVondele,Joost; Krack,Matthias; Hutter,Juerg. 
 The Journal of Chemical Physics, 152 (19), (2020). 
 CP2K: An electronic structure and molecular dynamics software package -
 Quickstep: Efficient and accurate electronic structure calculations.
 https://doi.org/10.1063/5.0007045

 Schuett, Ole; Messmer, Peter; Hutter, Juerg; VandeVondele, Joost. 
 Electronic Structure Calculations on Graphics Processing Units, John
 Wiley & Sons, Ltd, 173-190 (2016). 
 GPU-Accelerated Sparse Matrix-Matrix Multiplication for
 Linear Scaling Density Functional Theory.
 https://doi.org/10.1002/9781118670712.ch8

 Borstnik, U; VandeVondele, J; Weber, V; Hutter, J. 
 PARALLEL COMPUTING, 40 (5-6), 47-58 (2014). 
 Sparse matrix multiplication: The distributed block-compressed sparse
 row library.
 https://doi.org/10.1016/j.parco.2014.03.012

 Hutter, J; Iannuzzi, M; Schiffmann, F; VandeVondele, J. 
 WIREs Comput Mol Sci., 4 (1), 15-25 (2014). 
 CP2K: atomistic simulations of condensed matter systems.
 https://doi.org/10.1002/wcms.1159

 Marek, A; Blum, V; Johanni, R; Havu, V; Lang, B; Auckenthaler, T;
 Heinecke, A; Bungartz, H; Lederer, H. 
 Journal of Physics: Condensed Matter, 26 (21), (2014). 
 The ELPA library: scalable parallel eigenvalue solutions for
 electronic structure
 theory and computational science.
 https://doi.org/10.1088/0953-8984/26/21/213201

 Guidon, M; Hutter, J; VandeVondele, J. 
 JOURNAL OF CHEMICAL THEORY AND COMPUTATION, 5 (11), 3010-3021 (2009). 
 Robust Periodic Hartree-Fock Exchange for Large-Scale Simulations Using
 Gaussian Basis Sets.
 https://doi.org/10.1021/ct900494g

 Guidon, M; Schiffmann, F; Hutter, J; VandeVondele, J. 
 JOURNAL OF CHEMICAL PHYSICS, 128 (21), 214104 (2008). 
 Ab initio molecular dynamics using hybrid density functionals.
 https://doi.org/10.1063/1.2931945

 Kuhne, TD; Krack, M; Mohamed, FR; Parrinello, M. 
 PHYSICAL REVIEW LETTERS, 98 (6), 066401 (2007). 
 Efficient and accurate Car-Parrinello-like approach to
 Born-Oppenheimer molecular dynamics.
 https://doi.org/10.1103/PhysRevLett.98.066401

 Laino, T; Mohamed, F; Laio, A; Parrinello, M. 
 JOURNAL OF CHEMICAL THEORY AND COMPUTATION, 2 (5), 1370-1378 (2006). 
 An efficient linear-scaling electrostatic coupling for treating
 periodic boundary conditions in QM/MM simulations.
 https://doi.org/10.1021/ct6001169

 Laino, T; Mohamed, F; Laio, A; Parrinello, M. 
 JOURNAL OF CHEMICAL THEORY AND COMPUTATION, 1 (6), 1176-1184 (2005). 
 An efficient real space multigrid QM/MM electrostatic coupling.
 https://doi.org/10.1021/ct050123f

 Krack, M. 
 THEORETICAL CHEMISTRY ACCOUNTS, 114 (1-3), 145-152 (2005). 
 Pseudopotentials for H to Kr optimized for gradient-corrected
 exchange-correlation functionals.
 https://doi.org/10.1007/s00214-005-0655-y

 VandeVondele, J; Krack, M; Mohamed, F; Parrinello, M; Chassaing, T;
 Hutter, J. COMPUTER PHYSICS COMMUNICATIONS, 167 (2), 103-128 (2005). 
 QUICKSTEP: Fast and accurate density functional calculations using a
 mixed Gaussian and plane waves approach.
 https://doi.org/10.1016/j.cpc.2004.12.014

 Frigo, M; Johnson, SG. 
 PROCEEDINGS OF THE IEEE, 93 (2), 216-231 (2005). 
 The design and implementation of FFTW3.
 https://doi.org/10.1109/JPROC.2004.840301

 Kolafa, J. 
 JOURNAL OF COMPUTATIONAL CHEMISTRY, 25 (3), 335-342 (2004). 
 Time-reversible always stable predictor-corrector method for molecular dynamics of polarizable molecules.
 https://doi.org/10.1002/jcc.10385

 VandeVondele, J; Hutter, J. 
 JOURNAL OF CHEMICAL PHYSICS, 118 (10), 4365-4369 (2003). 
 An efficient orbital transformation method for electronic structure
 calculations.
 https://doi.org/10.1063/1.1543154

 Hartwigsen, C; Goedecker, S; Hutter, J. 
 PHYSICAL REVIEW B, 58 (7), 3641-3662 (1998). 
 Relativistic separable dual-space Gaussian pseudopotentials from H to Rn.
 https://doi.org/10.1103/PhysRevB.58.3641

 Lippert, G; Hutter, J; Parrinello, M. 
 MOLECULAR PHYSICS, 92 (3), 477-487 (1997). 
 A hybrid Gaussian and plane wave density functional scheme.
 https://doi.org/10.1080/002689797170220

 Goedecker, S; Teter, M; Hutter, J. 
 PHYSICAL REVIEW B, 54 (3), 1703-1710 (1996). 
 Separable dual-space Gaussian pseudopotentials.
 https://doi.org/10.1103/PhysRevB.54.1703

 ESSMANN, U; PERERA, L; BERKOWITZ, ML; DARDEN, T; LEE, H; PEDERSEN, LG. 
 JOURNAL OF CHEMICAL PHYSICS, 103 (19), 8577-8593 (1995). 
 A SMOOTH PARTICLE MESH EWALD METHOD.
 https://doi.org/10.1063/1.470117

 BLOCHL, PE. 
 JOURNAL OF CHEMICAL PHYSICS, 103 (17), 7422-7428 (1995). 
 ELECTROSTATIC DECOUPLING OF PERIODIC IMAGES OF PLANE-WAVE-EXPANDED
 DENSITIES AND DERIVED ATOMIC POINT CHARGES.
 https://doi.org/10.1063/1.470314

 BECKE, AD. PHYSICAL REVIEW A, 38 (6), 3098-3100 (1988). 
 DENSITY-FUNCTIONAL EXCHANGE-ENERGY APPROXIMATION WITH CORRECT
 ASYMPTOTIC-BEHAVIOR.
 https://doi.org/10.1103/PhysRevA.38.3098

 LEE, CT; YANG, WT; PARR, RG. 
 PHYSICAL REVIEW B, 37 (2), 785-789 (1988). 
 DEVELOPMENT OF THE COLLE-SALVETTI CORRELATION-ENERGY FORMULA INTO A
 FUNCTIONAL OF THE ELECTRON-DENSITY.
 https://doi.org/10.1103/PhysRevB.37.785

 VOSKO, SH; WILK, L; NUSAIR, M. 
 CANADIAN JOURNAL OF PHYSICS, 58 (8), 1200-1211 (1980). 
 ACCURATE SPIN-DEPENDENT ELECTRON LIQUID CORRELATION ENERGIES FOR LOCAL
 SPIN-DENSITY CALCULATIONS - A CRITICAL ANALYSIS.
 https://doi.org/10.1139/p80-159


 -------------------------------------------------------------------------------
 -                                                                             -
 -                                T I M I N G                                  -
 -                                                                             -
 -------------------------------------------------------------------------------
 SUBROUTINE                       CALLS  ASD         SELF TIME        TOTAL TIME
                                MAXIMUM       AVERAGE  MAXIMUM  AVERAGE  MAXIMUM
 CP2K                                 1  1.0    0.556    0.572 1893.934 1893.935
 qs_mol_dyn_low                       1  2.0    0.065    0.067 1813.873 1815.763
 qs_forces                            2  3.5    0.010    0.011 1615.239 1615.241
 rebuild_ks_matrix                   34  8.7    0.001    0.001 1601.850 1601.885
 qs_ks_build_kohn_sham_matrix        34  9.7    0.020    0.022 1601.849 1601.884
 hfx_ks_matrix                       34 10.7    0.055    0.057 1577.574 1577.624
 integrate_four_center               34 11.7    0.732    1.424 1552.180 1552.232
 integrate_four_center_main          34 12.7    0.016    0.019 1430.659 1531.587
 integrate_four_center_bin         2176 13.7 1430.642 1531.570 1430.642 1531.570
 qs_energies                          2  4.5    0.011    0.012 1500.126 1500.127
 scf_env_do_scf                       2  5.5    0.000    0.000 1498.258 1498.258
 qs_ks_update_qs_env                 34  7.9    0.001    0.001 1486.863 1486.895
 velocity_verlet                      1  3.0    0.019    0.020 1430.467 1430.471
 scf_env_do_scf_inner_loop           32  6.9    0.002    0.003 1335.483 1335.497
 mp_sync                            207 13.2  160.990  265.212  160.990  265.212
 init_scf_loop                        2  6.5    0.008    0.009  162.758  162.759
 qmmm_forces                          2  3.5    0.033    0.035  117.511  117.513
 qmmm_forces_with_gaussian            2  4.5    0.004    0.005   33.150  117.384
 qmmm_force_with_gaussian_low         2  5.5    0.000    0.000   32.099  116.333
 qs_ks_update_qs_env_forces           2  4.5    0.000    0.000  114.999  115.001
 mp_sum_dm                          258  4.8   84.783  102.541   84.783  102.541
 qmmm_el_coupling                     2  3.5    0.000    0.000   78.078   78.119
 qmmm_elec_with_gaussian              2  4.5    0.001    0.002   78.077   78.117
 qmmm_env_create                      1  2.0    8.340    8.437   77.573   77.578
 qmmm_elec_with_gaussian_low          2  5.5    0.000    0.000   26.081   77.210
 qmmm_forces_gaussian_low_R           2  6.5    0.000    0.000   18.013   76.381
 qmmm_forces_with_gaussian_LG         2  7.5   18.013   76.381   18.013   76.381
 fist_init                            1  3.0    0.001    0.002   66.397   66.400
 qmmm_elec_gaussian_low_R             2  6.5    0.000    0.000   13.328   47.822
 qmmm_elec_with_gaussian_LG           2  7.5   13.328   47.822   13.328   47.822
 force_field_control                  1  4.0    0.000    0.001   40.468   41.194
 qmmm_forces_gaussian_low_G           2  6.5   14.086   39.952   14.086   39.952
 rdparm_amber_8                       2  6.5   26.697   27.730   35.618   35.879
 qmmm_elec_gaussian_low_G             2  6.5   12.753   29.388   12.753   29.388
 derivatives_four_center              2  8.5    0.032    0.353   25.330   25.332
 topology_control                     1  4.0    0.000    0.001   25.120   25.310
 derivatives_four_center_main         2  9.5    0.003    0.003   24.257   24.257
 derivatives_four_center_bin        151 10.5   22.835   24.134   22.835   24.134
 force_field_pack                     1  5.0    0.010    0.019   23.349   24.091
 connectivity_control                 2  4.0    0.001    0.001   19.411   19.505
 read_connectivity_amber              1  6.0    0.000    0.000   18.596   18.622
 read_force_field_amber               1  5.0    0.006    0.007   17.028   17.331
 pw_transfer                        702 12.3    0.077    0.099   15.406   16.057
 fft_wrap_pw1pw2                    590 13.4    0.008    0.010   14.984   15.619
 fft_wrap_pw1pw2_150                378 14.6    1.492    1.699   14.632   15.202
 force_field_pack_ub                  1  6.0   11.854   13.030   11.854   13.030
 qs_vxc_create                       34 10.7    0.001    0.002   12.545   12.567
 xc_vxc_pw_create                    34 11.7    0.162    0.264   12.544   12.566
 fft3d_ps                           590 15.4    6.165    7.123   11.388   12.132
 force_field_pack_splines             2  6.0    0.017    0.024    8.051    8.402
 parser_read_line               1186304  7.6    0.244    0.270    7.066    8.299
 get_nonbond_storage                  2  7.0    0.259    0.299    7.830    8.178
 parser_read_line_low              1198  8.5    0.134    4.404    6.823    8.055
 broadcast_input_information       1198  9.5    0.005    0.006    6.689    7.986
 set_potparm_index                  508  8.0    0.383    0.398    7.571    7.925
 rs_pw_transfer                     284 12.0    0.015    0.017    7.044    7.896
 qs_rho_update_rho                   34  7.9    0.000    0.000    7.885    7.887
 calculate_rho_elec                  34  8.9    0.024    0.032    7.885    7.886
 sum_up_and_integrate                34 10.7    0.045    0.100    7.593    7.627
 integrate_v_rspace                  34 11.7    0.001    0.002    7.548    7.611
 init_genpot                        510  9.0    7.210    7.563    7.210    7.563
 density_rs2pw                       34  9.9    0.002    0.003    6.185    7.018
 xc_rho_set_and_dset_create          34 12.7    0.339    0.466    5.862    6.725
 mp_bcast_i                        4818 10.5    5.284    6.470    5.284    6.470
 potential_pw2rs                     34 12.7    0.003    0.003    5.041    5.101
 mp_alltoall_z22v                   590 17.4    3.920    4.758    3.920    4.758
 hfx_load_balance                     2 11.5    0.002    0.003    4.322    4.395
 mp_waitany                        5688 13.9    2.434    3.872    2.434    3.872
 integrate_four_center_load          34 12.7    0.000    0.002    3.773    3.847
 topology_coordinate_pack             2  4.0    0.001    0.001    3.493    3.625
 grid_collocate_task_list            34  9.9    1.507    3.600    1.507    3.600
 rs_pw_transfer_RS2PW_150            36 11.8    1.124    1.756    2.482    3.453
 yz_to_x                            276 15.8    0.476    0.588    2.580    3.379
 topology_coordinate_pack_11          2  5.0    3.253    3.366    3.253    3.366
 x_to_yz                            314 16.8    0.810    1.047    2.626    2.917
 mp_waitall_1                     99966 16.2    2.125    2.732    2.125    2.732
 md_output                            1  3.0    0.000    0.000    0.803    2.693
 rs_pw_transfer_PW2RS_150            36 14.4    1.739    1.812    2.579    2.653
 mp_alltoall_d11v                   517 13.6    2.121    2.582    2.121    2.582
 qs_ks_ddapc                         34 10.7    0.002    0.003    2.385    2.492
 rs_gather_matrices                  34 12.7    0.009    0.011    1.999    2.454
 grid_integrate_task_list            34 12.7    0.500    2.451    0.500    2.451
 eval_pw_TabLR                        3  3.0    0.492    2.243    2.366    2.370
 rdparm_amber_8_forcefield            1  7.0    0.049    0.084    2.296    2.369
 powell_optimize                1331636 13.0    2.310    2.368    2.310    2.368
 dbcsr_multiply_generic             644 12.9    0.019    0.020    2.196    2.263
 calc_pair_dist_radii                 1 12.0    1.093    1.117    2.157    2.208
 write_restart                        1  4.0    0.011    1.422    0.799    2.205
 calc_screening_functions             1 12.0    0.905    0.922    2.151    2.195
 hfx_load_balance_count               2 12.5    2.067    2.131    2.067    2.131
 mp_sum_lv                          113  2.6    1.420    2.114    1.420    2.114
 hfx_load_balance_bin                 2 12.5    2.021    2.077    2.021    2.077
 coordinate_control                   1  5.0    0.004    0.005    2.067    2.069
 coordinate_control_READ_COORDI       1  6.0    0.000    0.000    2.063    2.067
 read_coordinate_pdb                  1  7.0    1.459    1.509    2.063    2.067
 qs_scf_new_mos                      32  7.9    0.000    0.000    1.956    2.002
 qs_scf_loop_do_ot                   32  8.9    0.000    0.000    1.956    2.002
 mp_comm_dup                         21  5.0    0.908    1.928    0.908    1.928
 ot_scf_mini                         32  9.9    0.001    0.001    1.848    1.887
 prepare_preconditioner               2  7.5    0.000    0.000    1.861    1.863
 post_process_torsions_info           2  8.0    1.760    1.837    1.760    1.837
 mp_max_l                            26  3.5    1.776    1.829    1.776    1.829
 mp_sum_dm3                           3  4.0    1.749    1.774    1.749    1.774
 fist_init_subsys                     1  4.0    0.000    0.001    0.809    1.756
 ewald_pw_init                        1  5.0    0.001    0.002    0.799    1.740
 multiply_cannon                    644 13.9    0.051    0.060    1.490    1.729
 pw_integral_ab                     986  7.2    0.553    0.604    1.118    1.689
 mp_bcast_am                       1198 10.5    1.221    1.578    1.363    1.589
 multiply_cannon_loop               644 14.9    0.037    0.043    1.336    1.514
 xc_functional_eval                 136 13.7    0.002    0.002    0.831    1.509
 integrate_four_center_getP          34 12.7    0.835    0.965    1.497    1.501
 make_preconditioner                  2  8.5    0.001    0.001    1.464    1.465
 mp_sum_d                          2060  8.5    0.883    1.398    0.883    1.398
 make_full_all                        2  9.5    0.002    0.002    1.393    1.394
 ot_mini                             32 10.9    0.001    0.001    1.283    1.325
 pw_gather_p                        276 14.8    1.064    1.297    1.064    1.297
 multiply_cannon_metrocomm3       10304 15.9    0.017    0.018    0.550    1.243
 cp_fm_diag_elpa                      6 10.8    0.000    0.000    1.234    1.235
 cp_ddapc_apply_CD                   34 11.7    0.003    0.127    1.208    1.209
 cp_fm_redistribute_end               6 11.8    0.902    1.187    0.904    1.188
 cp_fm_diag_elpa_base                 6 11.6    0.279    1.138    0.283    1.175
 pw_derive                          210 13.0    1.041    1.155    1.041    1.155
 mp_bcast_im                        363  9.5    1.073    1.107    1.073    1.107
 pw_scatter_p                       314 15.8    1.005    1.094    1.005    1.094
 pw_copy                            451 12.7    1.009    1.058    1.009    1.058
 pw_restrict_s3                       6  5.5    0.640    0.760    1.045    1.047
 multiply_cannon_multrec          10304 15.9    0.533    0.973    0.534    0.974
 fist_calc_energy_force               2  3.5    0.081    0.085    0.937    0.966
 rs_pw_transfer_RS2PW_40             34 11.9    0.324    0.391    0.663    0.963
 qs_energies_init_hamiltonians        2  5.5    0.001    0.001    0.942    0.944
 md_write_output                      2  3.5    0.000    0.042    0.008    0.933
 force_field_unique_tors              1  6.0    0.900    0.928    0.900    0.928
 qmmm_elec_with_gaussian:spline       2  5.5    0.000    0.000    0.868    0.899
 pw_prolongate_s3                     6  6.5    0.483    0.589    0.868    0.899
 init_scf_run                         2  5.5    0.000    0.000    0.895    0.896
 scf_env_initial_rho_setup            2  6.5    0.000    0.000    0.895    0.896
 write_trajectory                     8  4.5    0.000    0.015    0.007    0.890
 write_particle_coordinates           2  5.5    0.007    0.876    0.007    0.876
 rs_pw_transfer_PW2RS_40             34 14.7    0.366    0.417    0.764    0.854
 qs_env_update_s_mstruct              2  6.5    0.000    0.000    0.829    0.838
 update_input                         1  5.0    0.000    0.000    0.788    0.820
 update_subsys                        1  6.0    0.000    0.000    0.787    0.820
 pw_poisson_solve                    36 10.4    0.307    0.319    0.813    0.814
 integrate_four_center_dist_KS       34 12.7    0.180    0.211    0.804    0.805
 section_coord_val_set                1  7.0    0.741    0.769    0.741    0.769
 mp_sum_l                          3338 13.1    0.417    0.739    0.417    0.739
 vwn_lda_eval                        34 14.7    0.385    0.728    0.385    0.728
 qs_ot_get_derivative                32 11.9    0.000    0.000    0.651    0.689
 get_ddapc                           34 12.7    0.002    0.002    0.618    0.650
 connectivity_control_check_ele       2  5.0    0.582    0.631    0.582    0.631
 ot_diis_step                        32 11.9    0.048    0.049    0.628    0.629
 apply_preconditioner_dbcsr          34 12.9    0.000    0.000    0.561    0.591
 apply_all                           34 13.9    0.001    0.001    0.561    0.591
 cp_ddapc_init                        2  7.5    0.000    0.000    0.557    0.561
 cp_ddapc_create                      2  8.5    0.014    0.017    0.556    0.561
 derivatives_four_center_load         2  9.5    0.000    0.000    0.558    0.560
 mp_isendrecv_dv                  26162 14.0    0.200    0.554    0.200    0.554
 pw_axpy                            720  8.5    0.442    0.537    0.442    0.537
 force_field_pack_bend                1  6.0    0.502    0.528    0.502    0.528
 ddapc_eval_AmI                       2  9.5    0.310    0.318    0.498    0.508
 fft_wrap_pw1pw2_40                  68 14.3    0.025    0.041    0.261    0.505
 init_cube_info                       8  5.5    0.324    0.502    0.324    0.502
 qs_ks_qmmm_create                    1  3.0    0.000    0.000    0.322    0.500
 update_particle_set                  2  4.0    0.024    0.026    0.475    0.483
 qs_ot_get_derivative_taylor         32 12.9    0.001    0.001    0.425    0.464
 make_m2s                          1288 13.9    0.014    0.016    0.441    0.463
 rs_grid_zero                        80 14.5    0.422    0.461    0.422    0.461
 subspace_eigenvalues_ks_dbcsr        4  9.0    0.000    0.000    0.456    0.458
 list_control                         2  4.5    0.037    0.044    0.390    0.436
 force_field_unique_ub                1  6.0    0.391    0.414    0.391    0.414
 calculate_first_density_matrix       1  7.0    0.001    0.002    0.404    0.405
 cp_dbcsr_syevd                       4 10.0    0.013    0.014    0.400    0.401
 make_images                       1288 14.9    0.028    0.030    0.363    0.398
 force_field_unique_bend              1  6.0    0.381    0.392    0.381    0.392
 xb88_lda_eval                       34 14.7    0.231    0.381    0.231    0.381
 build_fist_neighbor_lists            1  5.0    0.000    0.000    0.338    0.376
 modify_hartree_pot                  34 12.7    0.343    0.369    0.343    0.369
 force_field_pack_nonbond             1  6.0    0.306    0.366    0.306    0.366
 force_field_pack_nonbond14           1  6.0    0.332    0.348    0.332    0.348
 build_neighbor_lists                 1  6.0    0.304    0.337    0.304    0.339
 rs_pw_transfer_PW2RS_10             74 14.0    0.096    0.111    0.255    0.332
 rdparm_amber_8_connectivity          1  8.0    0.234    0.256    0.296    0.319
 force_field_pack_bond                1  6.0    0.281    0.303    0.281    0.303
 rs_pw_transfer_RS2PW_10             70 11.7    0.046    0.053    0.286    0.292
 mp_irecv_dv                      25584 16.4    0.097    0.288    0.097    0.288
 get_ddapc-forces                     2 10.5    0.121    0.127    0.259    0.286
 mp_bcast_iv                       2499 10.7    0.180    0.286    0.180    0.286
 make_basis_sm                        2  9.0    0.001    0.001    0.283    0.284
 multiply_cannon_metrocomm4        9660 15.9    0.018    0.019    0.105    0.270
 lyp_lda_eval                        34 14.7    0.156    0.265    0.156    0.265
 qs_ot_get_p                         34 10.7    0.000    0.001    0.207    0.254
 wfi_extrapolate                      2  7.5    0.001    0.001    0.252    0.252
 cp_fm_cholesky_reduce                2 10.5    0.246    0.247    0.246    0.247
 get_ddapc-charges                   34 13.7    0.126    0.134    0.239    0.247
 calculate_rho_core                   2  7.5    0.005    0.009    0.235    0.242
 cp_gemm                             16  9.7    0.000    0.000    0.237    0.239
 cp_gemm_fm_gemm                     16 10.7    0.001    0.001    0.237    0.239
 cp_fm_gemm                          16 11.7    0.236    0.238    0.236    0.238
 post_process_bonds_info              2  8.0    0.229    0.235    0.229    0.235
 post_process_bends_info              2  8.0    0.220    0.229    0.220    0.229
 rot_ana                              1  3.0    0.106    0.109    0.224    0.227
 hfx_load_balance_dist                2 12.5    0.001    0.001    0.130    0.225
 force_nonbond                        2  4.5    0.209    0.224    0.209    0.224
 spline_nonbond_control               2  7.0    0.182    0.201    0.204    0.217
 make_images_data                  1288 15.9    0.011    0.015    0.171    0.211
 qmmm_calculate_energy               34 10.7    0.001    0.001    0.162    0.208
 hybrid_alltoall_any               1317 16.8    0.009    0.024    0.158    0.201
 multiply_cannon_metrocomm1       10304 15.9    0.009    0.009    0.064    0.196
 topology_connectivity_pack           2  4.0    0.000    0.001    0.141    0.186
 force_field_pack_tors                1  6.0    0.174    0.186    0.174    0.186
 create_qs_kind_set                   1  3.0    0.000    0.000    0.183    0.185
 read_qs_kind                         6  4.0    0.049    0.062    0.183    0.185
 topology_coordinate_pack_89          2  5.0    0.130    0.181    0.130    0.181
 add_coarse2fine                      6  7.5    0.130    0.164    0.142    0.177
 add_fine2coarse                      6  6.5    0.119    0.152    0.170    0.172
 hfx_load_balance_range               1 14.0    0.002    0.003    0.097    0.169
 build_A_matrix                       2 10.5    0.140    0.169    0.140    0.169
 mp_irecv_dm3                      1024 13.9    0.068    0.166    0.068    0.166
 integrate_v_core_rspace              2  7.5    0.004    0.007    0.156    0.160
 mp_bcast_b                          76 11.7    0.148    0.158    0.148    0.158
 psf_post_process                     1  6.0    0.141    0.157    0.141    0.157
 build_der_A_matrix_rows              6 11.5    0.126    0.151    0.126    0.151
 spme_evaluate                        2  4.5    0.064    0.069    0.147    0.149
 external_control                    33  7.7    0.001    0.133    0.139    0.147
 make_images_sizes                 1288 15.9    0.001    0.001    0.098    0.146
 mp_alltoall_i44                   1288 16.9    0.097    0.145    0.097    0.145
 cp_fm_cholesky_decompose             4 10.2    0.142    0.143    0.142    0.143
 qs_init_subsys                       1  3.0    0.001    0.007    0.136    0.138
 xalpha_lda_eval                     34 14.7    0.056    0.136    0.056    0.136
 calculate_dm_sparse                 34  9.8    0.000    0.000    0.119    0.130
 read_mo_set_from_restart             1  8.0    0.014    0.117    0.127    0.128
 mp_allgather_i34                   644 14.9    0.059    0.125    0.059    0.125
 qs_env_setup                         1  4.0    0.011    0.011    0.120    0.124
 mp_sendrecv_dm2                    872  6.9    0.040    0.124    0.040    0.124
 clean_intra_force_kind               1  5.0    0.074    0.123    0.074    0.123
 diamat_all                           1  4.0    0.118    0.119    0.118    0.119
 remove_restart_info                  1  2.0    0.101    0.115    0.101    0.115
 build_core_hamiltonian_matrix        2  6.5    0.008    0.009    0.099    0.112
 build_b_vector                      34 14.7    0.095    0.111    0.095    0.111
 fft_wrap_pw1pw2_10                 144 13.9    0.004    0.007    0.084    0.110
 mp_alltoall_i22                    145 13.8    0.068    0.110    0.068    0.110
 dbcsr_dot_sd                       415 12.5    0.014    0.017    0.062    0.108
 force_field_unique_bond              1  6.0    0.093    0.108    0.093    0.108
 qs_ot_get_orbitals                  32 10.9    0.000    0.000    0.100    0.103
 setup_velocities                     1  3.0    0.000    0.000    0.088    0.103
 initialize_velocities                1  4.0    0.087    0.103    0.087    0.103
 multiply_cannon_metrocomm2        9016 15.9    0.016    0.017    0.047    0.101
 rs_scatter_matrices                 36  9.9    0.007    0.011    0.089    0.097
 build_core_hamiltonian_matrix_       2  4.5    0.000    0.000    0.077    0.095
 copy_dbcsr_to_fm                    29 10.2    0.000    0.000    0.081    0.092
 qs_env_rebuild_pw_env                5  5.0    0.001    0.001    0.088    0.092
 pw_env_rebuild                       1  6.0    0.002    0.002    0.088    0.091
 derivatives_four_center_getP         2  9.5    0.045    0.057    0.087    0.090
 pw_zero                            790  6.8    0.081    0.085    0.081    0.085
 cp_dbcsr_sm_fm_multiply              6 10.3    0.000    0.000    0.082    0.083
 pw_grid_setup                        8  5.4    0.001    0.001    0.079    0.080
 make_images_pack                  1288 15.9    0.036    0.078    0.038    0.080
 pw_grid_setup_internal               8  6.4    0.003    0.004    0.079    0.079
 dbcsr_make_images_dense           1124 15.2    0.008    0.008    0.055    0.077
 dbcsr_make_dense_low              2212 16.0    0.007    0.008    0.050    0.076
 topology_generate_molecule           2  5.0    0.049    0.074    0.050    0.075
 add_fine2coarse_comm                 6  7.5    0.001    0.001    0.051    0.073
 update_pmax_mat                      2  9.5    0.071    0.072    0.071    0.072
 cp_fm_cholesky_restore               4 10.5    0.064    0.071    0.064    0.071
 mp_alltoall_i                       12  9.0    0.048    0.071    0.048    0.071
 arnoldi_extremal                    34 11.7    0.000    0.000    0.058    0.071
 arnoldi_normal_ev                   34 12.7    0.001    0.002    0.058    0.071
 post_process_LJ_info                 1  8.0    0.038    0.070    0.038    0.070
 build_core_ppl_forces                2  5.5    0.043    0.066    0.043    0.066
 make_dense_data                   2212 17.0    0.035    0.059    0.039    0.065
 conform_atom_type_low               48  9.0    0.062    0.064    0.062    0.064
 build_overlap_matrix_low             4  6.5    0.058    0.060    0.060    0.062
 ot_scf_init                          2  7.5    0.000    0.000    0.060    0.061
 cp_dbcsr_sm_fm_multiply_core         6 11.3    0.000    0.000    0.056    0.061
 dbcsr_new_transposed               262 13.9    0.002    0.003    0.038    0.060
 topology_molecules_check             1  6.0    0.042    0.059    0.042    0.059
 dbcsr_desymmetrize_deep             29 11.2    0.002    0.002    0.049    0.057
 dbcsr_complete_redistribute         56 11.3    0.008    0.010    0.049    0.056
 mp_sum_dv                          110 15.2    0.032    0.055    0.032    0.055
 dbcsr_redistribute                  60 14.9    0.002    0.003    0.033    0.055
 section_velocity_val_set             1  7.0    0.045    0.053    0.045    0.053
 force_field_pack_eicut               1  6.0    0.045    0.053    0.045    0.053
 pw_nn_compose_r                     46  4.0    0.049    0.051    0.049    0.051
 cp_fm_redistribute_start             6 11.8    0.044    0.045    0.047    0.051
 mp_isend_dv                      25742 16.4    0.034    0.050    0.034    0.050
 ewald_ddapc_pot                      4  9.5    0.025    0.028    0.037    0.048
 get_fft_scratch                    591 16.3    0.045    0.048    0.045    0.048
 hfx_create                           1  3.0    0.029    0.047    0.029    0.047
 topology_coordinate_pack_1           2  5.0    0.043    0.047    0.043    0.047
 qs_create_task_list                  2  7.5    0.000    0.001    0.037    0.047
 generate_qs_task_list                2  8.5    0.017    0.019    0.037    0.047
 qmmm_modify_hartree_pot             34 10.7    0.037    0.047    0.037    0.047
 pw_grid_sort                         8  7.4    0.031    0.032    0.042    0.044
 write_mo_set_to_restart             32  7.9    0.001    0.012    0.021    0.042
 sort_neighbor_lists                  1  6.0    0.034    0.042    0.034    0.042
 cp_fm_upper_to_full                 10 12.1    0.007    0.041    0.007    0.041
 fft3d_s                              1  2.0    0.000    0.000    0.039    0.041
 calculate_ecore_overlap              4  5.5    0.000    0.000    0.022    0.041
 topology_connectivity_pack_2         2  5.0    0.026    0.040    0.026    0.040
 mp_isend_dm3                      1024 13.9    0.029    0.036    0.029    0.036
 write_mo_set_low                     3  8.7    0.000    0.001    0.016    0.036
 cp_fm_write_unformatted              3  9.7    0.014    0.022    0.015    0.036
 build_core_ppl                       2  7.5    0.023    0.035    0.023    0.035
 compute_evals                       34 13.7    0.034    0.034    0.034    0.034
 qs_ot_p2m_taylor                    34 11.7    0.000    0.000    0.031    0.034
 dbcsr_create_new                  8998 15.5    0.022    0.024    0.032    0.034
 build_core_ppnl_forces               2  5.5    0.025    0.030    0.025    0.030
 mp_max_d                             2  3.5    0.015    0.030    0.015    0.030
 arnoldi_init                        34 13.7    0.001    0.001    0.018    0.030
 topology_coordinate_pack_6           2  5.0    0.026    0.028    0.026    0.028
 topology_coordinate_pack_5           2  5.0    0.024    0.027    0.024    0.027
 dbcsr_scale_by_vector_anytype       32 10.9    0.026    0.026    0.026    0.026
 distribute_tasks                     2  9.5    0.002    0.007    0.019    0.026
 dbcsr_add_d                        752 13.2    0.001    0.001    0.017    0.026
 mp_max_i                           490  1.8    0.011    0.026    0.011    0.026
 copy_fm_to_dbcsr                    27 10.4    0.003    0.003    0.023    0.026
 dbcsr_add_anytype                  752 14.2    0.007    0.012    0.016    0.025
 buffer_matrices_ensure_size       1288 14.9    0.021    0.025    0.021    0.025
 topology_connectivity_pack_13        2  5.0    0.016    0.024    0.016    0.024
 topology_coordinate_pack_3           2  5.0    0.009    0.024    0.009    0.024
 density_nonbond                      2  4.5    0.021    0.024    0.021    0.024
 dbcsr_special_finalize            1932 15.9    0.002    0.003    0.015    0.024
 mp_isend_iv                      21766 16.9    0.016    0.024    0.016    0.024
 dbcsr_finalize                    1638 14.2    0.004    0.004    0.018    0.023
 force_field_qeff_output              1  5.0    0.017    0.022    0.017    0.022
 mp_send_dv                           3 10.7    0.001    0.022    0.001    0.022
 energy_manybody                      2  4.5    0.017    0.021    0.017    0.021
 cp_dbcsr_plus_fm_fm_t_native         4  8.5    0.000    0.000    0.019    0.021
 ewald_ddapc_force                    4  9.5    0.002    0.003    0.020    0.020
 topology_connectivity_pack_11        2  5.0    0.014    0.019    0.014    0.019
 mp_sum_iv                           68 10.1    0.015    0.019    0.015    0.019
 topology_connectivity_pack_4         2  5.0    0.015    0.019    0.015    0.019
 qs_energies_compute_matrix_w         2  5.5    0.000    0.000    0.018    0.019
 calculate_w_matrix_ot                2  6.5    0.000    0.000    0.018    0.019
 topology_connectivity_pack_12        2  5.0    0.012    0.019    0.012    0.019
 dbcsr_make_dense                   526 14.4    0.001    0.001    0.013    0.018
 cp_decpl_ddapc_forces                4 10.5    0.016    0.016    0.017    0.017
 topology_connectivity_pack_10        2  5.0    0.012    0.017    0.012    0.017
 restraint_control                    2  3.5    0.005    0.006    0.015    0.017
 cp_fm_triangular_multiply            2 10.0    0.016    0.017    0.016    0.017
 topology_connectivity_pack_14        2  5.0    0.011    0.017    0.011    0.017
 force_field_pack_impr                1  6.0    0.009    0.017    0.009    0.017
 dbcsr_distribution_new            3422 14.5    0.016    0.016    0.016    0.016
[...]
 mp_bcast_dv                         42 15.8    0.006    0.013    0.006    0.013
 build_core_ppnl                      2  7.5    0.009    0.012    0.009    0.012
 evaluate_core_matrix_traces         34  8.7    0.000    0.000    0.011    0.012
 calculate_ptrace_kp                 68  9.7    0.000    0.000    0.011    0.011
 topology_connectivity_pack_5         2  5.0    0.009    0.011    0.009    0.011
 pw_grid_remap                        5  8.8    0.002    0.002    0.007    0.011
 pw_grid_assign                       8  7.4    0.010    0.010    0.011    0.011
 topology_connectivity_pack_6         2  5.0    0.008    0.011    0.008    0.011
 build_qs_neighbor_lists              2  6.5    0.000    0.000    0.010    0.011
 ddapc_eval_gfunc                     2  9.5    0.008    0.011    0.008    0.011
 dbcsr_cholesky_invert                2 12.5    0.009    0.009    0.011    0.011
 dbcsr_col_vec_to_rep_row            34 15.7    0.000    0.000    0.005    0.010
 compute_max_radius                   1  7.0    0.010    0.010    0.010    0.010
 dbcsr_iterator_start              7699 16.2    0.006    0.008    0.008    0.010
 hfx_update_load_balance              2 12.5    0.005    0.006    0.009    0.010
 dbcsr_destroy                     8696 14.6    0.007    0.007    0.009    0.010
 compute_load_list                    8 11.5    0.002    0.003    0.007    0.010
 force_intra_control                  2  4.5    0.009    0.010    0.009    0.010
 dbcsr_mm_multrec_init              644 14.9    0.001    0.001    0.008    0.010
 get_current_loads                   24 11.5    0.000    0.000    0.007    0.009
 create_local_fixd_list               2  4.5    0.009    0.009    0.009    0.009
 mpools_rebuild_fm_pools              1  5.0    0.008    0.008    0.008    0.009
 pw_scale                            34 11.7    0.006    0.009    0.006    0.009
 setup_buffer_matrices             1288 14.9    0.003    0.003    0.008    0.009
 build_kinetic_matrix_low             4  6.5    0.006    0.009    0.007    0.009
 mp_sum_im3                           5  9.8    0.005    0.009    0.005    0.009
 dbcsr_mm_csr_init                  644 15.9    0.005    0.007    0.007    0.009
 dbcsr_data_release               43585 16.5    0.008    0.009    0.008    0.009
 mp_alltoall_l                       26 12.4    0.006    0.008    0.006    0.008
 qmmm_connectivity_control            1  5.0    0.008    0.008    0.008    0.008
 dbcsr_make_untransposed_blocks     774 13.8    0.006    0.007    0.007    0.008
 dbcsr_sort_indices                3969 16.8    0.005    0.008    0.005    0.008
 dbcsr_data_new                   24390 16.2    0.007    0.008    0.007    0.008
 mp_alltoall_i11v                   377 14.0    0.004    0.008    0.004    0.008
 force_field_unique_impr              1  6.0    0.006    0.007    0.006    0.007
 transfer_fm_to_dbcsr                 2  9.5    0.000    0.000    0.006    0.007
 dbcsr_iterator_stop               7699 16.2    0.004    0.006    0.005    0.007
 dbcsr_copy                         594 12.6    0.003    0.004    0.005    0.007
 dbcsr_make_index_exist            8998 16.5    0.006    0.007    0.006    0.007
 mp_irecv_iv                      21698 16.9    0.005    0.007    0.005    0.007
 mp_maxloc_dv                      1379  1.0    0.006    0.006    0.006    0.006
 get_atomic_block_maps                2 12.5    0.003    0.003    0.005    0.006
 force_field_unique_opbend            1  6.0    0.005    0.006    0.005    0.006
 dbcsr_set                          337 13.0    0.000    0.000    0.005    0.006
 dbcsr_merge_single_wm              236 14.8    0.001    0.001    0.002    0.006
 pw_grid_distribute                   8  7.4    0.005    0.005    0.006    0.006
 mp_sum_b                          1130 14.2    0.005    0.006    0.005    0.006
 dbcsr_zero                         337 14.0    0.005    0.006    0.005    0.006
 dbcsr_make_dists_dense             562 14.2    0.004    0.004    0.005    0.005
 build_neighbor_lists_sac_ppl         2  7.5    0.005    0.005    0.005    0.005
 create_local_tasks                   2 10.5    0.001    0.002    0.004    0.005
 dbcsr_add_wm_from_matrix           130 13.3    0.000    0.000    0.003    0.005
 dbcsr_switch_data_area            5569 16.9    0.003    0.003    0.004    0.005
 cp_dbcsr_cholesky_decompose          2 12.5    0.002    0.002    0.004    0.005
 dbcsr_work_create                 3530 15.3    0.003    0.004    0.004    0.005
 setup_rec_index_2d                1288 14.9    0.004    0.005    0.004    0.005
 dbcsr_fill_wm_from_matrix          130 14.3    0.002    0.004    0.003    0.004
 grid_create_task_list                2  9.5    0.001    0.004    0.001    0.004
 mp_rank_compare                    590 16.4    0.003    0.004    0.003    0.004
 mp_comm_compare                    599 16.3    0.003    0.004    0.003    0.004
 mp_bcast_av                        355  1.0    0.002    0.002    0.003    0.004
 dbcsr_sort_data                    236 15.8    0.001    0.004    0.001    0.004
 mp_alltoall_l11v                     2 11.5    0.003    0.004    0.003    0.004
 topology_connectivity_pack_7         2  5.0    0.002    0.004    0.002    0.004
 topology_coordinate_pack_7a          2  5.0    0.002    0.004    0.002    0.004
 topology_connectivity_pack_13_       2  5.0    0.002    0.004    0.002    0.004
 merge_index                        965 16.4    0.003    0.004    0.003    0.004
 mp_environ_l                      1845 12.9    0.003    0.004    0.003    0.004
 optimize_load_list                   4 11.5    0.001    0.001    0.003    0.004
 mp_sum_i                             6  4.7    0.002    0.004    0.002    0.004
 pw_pool_create_pw                 1122 11.7    0.002    0.002    0.002    0.004
 dbcsr_make_index_list             1932 14.9    0.003    0.003    0.003    0.003
 build_subspace                      34 13.7    0.000    0.001    0.003    0.003
 pw_poisson_rebuild                  38 11.1    0.003    0.003    0.003    0.003
 fix_atom_control                     2  3.5    0.003    0.003    0.003    0.003
 mp_sum_im                           12  8.4    0.003    0.003    0.003    0.003
 rs_grid_create_descriptor            5  6.8    0.001    0.001    0.003    0.003
 mp_cart_create                      38 11.4    0.003    0.003    0.003    0.003
 dbcsr_work_destroy_all            3530 16.3    0.002    0.003    0.003    0.003
 mp_environ_c                       590 16.4    0.002    0.003    0.002    0.003
 mp_recv_dv                          45 10.7    0.000    0.003    0.000    0.003
 hfx_load_balance_opt                 2 12.5    0.003    0.003    0.003    0.003
 cp_fm_create                        55 10.4    0.001    0.003    0.001    0.003
 tree_to_linear_d                   124 15.1    0.002    0.003    0.002    0.003
 topology_connectivity_pack_3         2  5.0    0.001    0.003    0.001    0.003
 mp_cart_sub                         60 12.2    0.002    0.003    0.002    0.003
 build_neighbor_lists_sap_ppnl        2  7.5    0.002    0.003    0.002    0.003
 topology_connectivity_pack_1         2  5.0    0.001    0.002    0.001    0.002
 mp_allgatherv_iv                     2 13.5    0.002    0.002    0.002    0.002
 dbcsr_iterator_seek               7699 17.2    0.002    0.002    0.002    0.002
 hfx_load_balance_redist              2 12.5    0.001    0.001    0.002    0.002
 load_balance_replicated              2 10.5    0.001    0.001    0.002    0.002
 pw_pool_give_back_pw              1249 11.8    0.002    0.002    0.002    0.002
 dbcsr_make_dbcsr_index            4043 17.0    0.002    0.002    0.002    0.002
 pw_create                          243 11.2    0.001    0.002    0.001    0.002
 mp_max_iv                            2 13.5    0.000    0.002    0.000    0.002
 bonded_correct_gaussian              2  4.5    0.001    0.001    0.002    0.002
 topology_connectivity_pack_11_       2  5.0    0.001    0.002    0.001    0.002
 topology_connectivity_pack_12_       2  5.0    0.001    0.002    0.001    0.002
 mp_allgather_l                      26 12.4    0.001    0.002    0.001    0.002
 build_neighbor_lists_sab_core        2  7.5    0.002    0.002    0.002    0.002
 copy_fm_to_dbcsr_bc                 27 11.4    0.001    0.001    0.001    0.002
 dbcsr_data_copy_aa2                159 13.9    0.001    0.002    0.001    0.002
 dbcsr_reserve_blocks               179 14.7    0.001    0.001    0.001    0.002
 topology_generate_molecule_PAR       2  6.0    0.001    0.002    0.001    0.002
 multiply_cannon_multrec_finali     644 16.9    0.000    0.000    0.001    0.002
 fill_hash_tables                   644 16.9    0.001    0.002    0.001    0.002
 cp_dbcsr_alloc_block_from_nbl       16  7.2    0.000    0.001    0.001    0.001
 transpose_index_local              262 14.9    0.000    0.001    0.001    0.001
 scf_c_write_parameters               1  4.0    0.000    0.001    0.000    0.001
 mp_sum_partial_im                    4 12.5    0.001    0.001    0.001    0.001
 mp_sum_root_iv                       4 12.5    0.001    0.001    0.001    0.001
 qs_scf_ensure_work_matrices          2  5.5    0.000    0.000    0.001    0.001
 dbcsr_get_local_cols              1170 14.6    0.001    0.001    0.001    0.001
 pw_grid_allocate                     8  7.4    0.000    0.001    0.000    0.001
 ot_scf_read_input                    2  7.5    0.000    0.000    0.000    0.001
 fist_neighbor_init                   1  7.0    0.000    0.001    0.000    0.001
 ot_readwrite_input                   2  8.5    0.000    0.001    0.000    0.001
 topology_coordinate_pack_10          2  5.0    0.000    0.001    0.000    0.001
 scf_post_calculation_gpw             2  5.5    0.000    0.001    0.001    0.001
 copy_dbcsr_to_fm_bc                 29 11.2    0.001    0.001    0.001    0.001
 mp_isendrecv_lv                   1016 13.5    0.001    0.001    0.001    0.001
 dbcsr_mm_multrec_finalize          644 17.9    0.001    0.001    0.001    0.001
 dbcsr_reserve_all_blocks           163 14.4    0.000    0.000    0.001    0.001
 dbcsr_scale_anytype                818 15.2    0.001    0.001    0.001    0.001
 dbcsr_get_local_rows              1170 14.6    0.001    0.001    0.001    0.001
 mp_bcast_i3                          4 12.5    0.000    0.001    0.000    0.001
 mp_max_r                             1  2.0    0.000    0.001    0.000    0.001
 dbcsr_get_data_size_used          1598 15.4    0.001    0.001    0.001    0.001
 dbcsr_scale_d                       66 13.8    0.000    0.000    0.001    0.001
 rs_grid_create                      17  6.8    0.000    0.001    0.001    0.001
 qs_env_rebuild_rho                   2  7.5    0.000    0.000    0.000    0.001
 dbcsr_index_prune_deleted         1686 16.2    0.001    0.001    0.001    0.001
 mp_comm_free                       125  9.8    0.001    0.001    0.001    0.001
 create_col_vec_from_matrix          68 13.7    0.000    0.000    0.001    0.001
 update_motion                        1  6.0    0.000    0.001    0.000    0.001
 dbcsr_make_index_local_row        1932 14.9    0.001    0.001    0.001    0.001
 qs_rho_rebuild                       2  8.5    0.000    0.000    0.000    0.001
 mp_sum_r                             1  2.0    0.000    0.001    0.000    0.001
 mp_wait                              2  5.5    0.000    0.001    0.000    0.001
 force_field_pack_radius              1  6.0    0.001    0.001    0.001    0.001
 dbcsr_matrix_vector_mult_local      34 15.7    0.000    0.001    0.000    0.001
 dbcsr_add_on_diag                   68 12.7    0.000    0.000    0.001    0.001
 topology_constraint_pack             1  5.0    0.000    0.000    0.000    0.001
 mp_comm_split                        6 12.8    0.001    0.001    0.001    0.001
 wfs_update                           2  5.5    0.000    0.001    0.000    0.001
 topology_constraint_pack_1           1  6.0    0.000    0.001    0.000    0.001
 build_neighbor_lists_sab_orb         2  7.5    0.001    0.001    0.001    0.001
 mp_allgatherv_lv                     1 15.0    0.000    0.001    0.000    0.001
 build_neighbor_lists_sab_all         2  7.5    0.000    0.001    0.000    0.001
 mp_min_lv                            5  8.8    0.000    0.001    0.000    0.001
 dbcsr_mm_sched_init                644 16.9    0.000    0.001    0.001    0.001
 cp_fm_to_fm_columns                  2 10.5    0.000    0.001    0.000    0.001
 pw_poisson_set                       3  6.0    0.000    0.001    0.000    0.001
 balance_global_list                  4 12.5    0.000    0.001    0.000    0.001
 qs_scf_loop_print                   32  7.9    0.000    0.001    0.000    0.001
 init_interaction_radii               1  4.0    0.000    0.001    0.000    0.001
 qs_scf_write_mos                    34  7.9    0.000    0.001    0.000    0.001
 dbcsr_copy_into_existing             4  7.5    0.000    0.000    0.000    0.000
 create_replicated_col_vec_from      34 13.7    0.000    0.000    0.000    0.000
 topology_coordinate_pack_4           2  5.0    0.000    0.000    0.000    0.000
 qmmm_coordinate_control              1  6.0    0.000    0.000    0.000    0.000
 topology_connectivity_pack_8         2  5.0    0.000    0.000    0.000    0.000
 create_replicated_row_vec_from      34 13.7    0.000    0.000    0.000    0.000
 pw_hfx                              34 11.7    0.000    0.000    0.000    0.000
 offload_create_buffer               21  8.1    0.000    0.000    0.000    0.000
 write_available_results              2  6.5    0.000    0.000    0.000    0.000
 create_fast_row_vec_access          34 15.7    0.000    0.000    0.000    0.000
 cleanup_scf_loop                     2  7.5    0.000    0.000    0.000    0.000
 force_field_pack_charge              1  6.0    0.000    0.000    0.000    0.000
 cp_fm_to_fm_matrix                   7  9.1    0.000    0.000    0.000    0.000
 topology_connectivity_pack_1.1       2  5.0    0.000    0.000    0.000    0.000
 cp_fm_release                       60  9.4    0.000    0.000    0.000    0.000
 dbcsr_mm_sched_finalize            644 18.9    0.000    0.000    0.000    0.000
 qs_efield_local_operator            34 10.7    0.000    0.000    0.000    0.000
 create_fast_row_vec_access_d        34 16.7    0.000    0.000    0.000    0.000
 create_destination_list              4 11.5    0.000    0.000    0.000    0.000
 create_fast_col_vec_access          34 15.7    0.000    0.000    0.000    0.000
 dbcsr_get_global_col_map           644 13.9    0.000    0.000    0.000    0.000
 write_mo_free_results                2  7.5    0.000    0.000    0.000    0.000
 dbcsr_get_global_row_map           644 13.9    0.000    0.000    0.000    0.000
 create_fast_col_vec_access_d        34 16.7    0.000    0.000    0.000    0.000
 write_qs_particle_coordinates        3  3.7    0.000    0.000    0.000    0.000
 dump_info_core_hamiltonian           4  6.5    0.000    0.000    0.000    0.000
 distribute_molecules_2d              1  5.0    0.000    0.000    0.000    0.000
 mp_min_i                             3  6.0    0.000    0.000    0.000    0.000
 qs_scf_ensure_mos                    2  5.5    0.000    0.000    0.000    0.000
 spline_env_create                    2  8.0    0.000    0.000    0.000    0.000
 print_atomic_charges                34 14.7    0.000    0.000    0.000    0.000
 external_read_density                2  6.5    0.000    0.000    0.000    0.000
 write_mo_dependent_results           2  7.5    0.000    0.000    0.000    0.000
 topology_set_atm_mass                1  4.0    0.000    0.000    0.000    0.000
 ewald_pw_release                     4  3.5    0.000    0.000    0.000    0.000
 hfx_create_basis_types               1  4.0    0.000    0.000    0.000    0.000
 qs_ks_did_change                    36  7.9    0.000    0.000    0.000    0.000
 qs_efield_berry_phase               34 10.7    0.000    0.000    0.000    0.000
 qs_scf_print_scf_summary             2  7.5    0.000    0.000    0.000    0.000
 dbcsr_mm_hostdrv_init              644 17.9    0.000    0.000    0.000    0.000
 force_field_pack_shell               1  6.0    0.000    0.000    0.000    0.000
 topology_coordinate_pack_2           2  5.0    0.000    0.000    0.000    0.000
 mp_cart_coords                     640  9.8    0.000    0.000    0.000    0.000
 set_mo_occupation_1                 35  9.7    0.000    0.000    0.000    0.000
 write_structure_data                 4  4.5    0.000    0.000    0.000    0.000
 scf_env_release                      3  4.0    0.000    0.000    0.000    0.000
 atom2d_build                         2  7.5    0.000    0.000    0.000    0.000
 qs_scf_post_charges                  2  6.5    0.000    0.000    0.000    0.000
 force_field_pack_pol                 1  6.0    0.000    0.000    0.000    0.000
 calculate_ecore_self                 4  5.5    0.000    0.000    0.000    0.000
 cp_ddapc_apply_RF                   34 11.7    0.000    0.000    0.000    0.000
 read_qs_section                      1  4.0    0.000    0.000    0.000    0.000
 topology_generate_onfo               1  4.0    0.000    0.000    0.000    0.000
 compute_averages                     1  5.0    0.000    0.000    0.000    0.000
 resp_fit                             2  7.5    0.000    0.000    0.000    0.000
 scf_c_read_parameters                1  4.0    0.000    0.000    0.000    0.000
 read_tddfpt2_control                 1  4.0    0.000    0.000    0.000    0.000
 mp_max_lv                            5  8.8    0.000    0.000    0.000    0.000
 force_field_pack_damp                1  6.0    0.000    0.000    0.000    0.000
 mp_isend_dm2                         2  5.5    0.000    0.000    0.000    0.000
 qs_energies_properties               2  5.5    0.000    0.000    0.000    0.000
 topology_muc                         2  5.0    0.000    0.000    0.000    0.000
 temperature_control                  1  3.0    0.000    0.000    0.000    0.000
 offload_free_buffer                 19  5.3    0.000    0.000    0.000    0.000
 update_cell_section                  1  7.0    0.000    0.000    0.000    0.000
 make_basic_distribution              1  6.0    0.000    0.000    0.000    0.000
 check_cp2k_input                     1  2.0    0.000    0.000    0.000    0.000
 initialize_cascade                   1  4.0    0.000    0.000    0.000    0.000
 qs_scf_post_ps_implicit              2  8.5    0.000    0.000    0.000    0.000
 dbcsr_filter_anytype                42 10.1    0.000    0.000    0.000    0.000
 reset_ch_pulay                       2  8.5    0.000    0.000    0.000    0.000
 destroy_preconditioner               2  5.5    0.000    0.000    0.000    0.000
 metadyn_integrator                   1  4.0    0.000    0.000    0.000    0.000
 update_motion_AVERAGES               1  7.0    0.000    0.000    0.000    0.000
 grid_create_basis_set                6  9.0    0.000    0.000    0.000    0.000
 outer_loop_extrapolate               2  6.5    0.000    0.000    0.000    0.000
 scf_env_create                       1  5.0    0.000    0.000    0.000    0.000
 qs_scf_post_transport                2  8.5    0.000    0.000    0.000    0.000
 -------------------------------------------------------------------------------

 The number of warnings for this run is : 3
 
 -------------------------------------------------------------------------------
  **** **** ******  **  PROGRAM ENDED AT                 2021-12-08 17:06:03.627
 ***** ** ***  *** **   PROGRAM RAN ON                                 nid001774
 **    ****   ******    PROGRAM RAN BY                                     hjbio
 ***** **    ** ** **   PROGRAM PROCESS ID                                103883
  **** **  *******  **  PROGRAM STOPPED IN /mnt/lustre/a2fs-work1/work/d118/d118
                                           /hjbio/CP2K/qmmm-benchmarking/CPU/cp2
                                           kMD/ClC-253-B3LYP/1STEPS/1NODES/128CP
                                           N/1THREADS
