 DBCSR| CPU Multiplication driver                                           BLAS
 DBCSR| Multrec recursion limit                                              512
 DBCSR| Multiplication stack size                                           1000
 DBCSR| Maximum elements for images                                    UNLIMITED
 DBCSR| Multiplicative factor virtual images                                   1
 DBCSR| Use multiplication densification                                       T
 DBCSR| Multiplication size stacks                                             3
 DBCSR| Use memory pool for CPU allocation                                     F
 DBCSR| Number of 3D layers                                               SINGLE
 DBCSR| Use MPI memory allocation                                              F
 DBCSR| Use RMA algorithm                                                      F
 DBCSR| Use Communication thread                                               T
 DBCSR| Communication thread load                                             60
 DBCSR| MPI: My node id                                                        0
 DBCSR| MPI: Number of nodes                                                  16
 DBCSR| OMP: Current number of threads                                         8
 DBCSR| OMP: Max number of threads                                             8
 DBCSR| Split modifier for TAS multiplication algorithm                  1.0E+00


  **** **** ******  **  PROGRAM STARTED AT               2021-08-31 18:02:54.910
 ***** ** ***  *** **   PROGRAM STARTED ON                             nid001758
 **    ****   ******    PROGRAM STARTED BY                                 hjbio
 ***** **    ** ** **   PROGRAM PROCESS ID                                172036
  **** **  *******  **  PROGRAM STARTED IN /lus/cls01095/work/d118/d118/hjbio/qm
                                           mm-benchmarking/archer2/CPU/cp2kMD/CB
                                           D_PHY-PBE0/6STEPS/1NODES/128CPN/8THRE
                                           ADS

 CP2K| version string:                                          CP2K version 8.2
 CP2K| source code revision number:                                  git:310b7ab
 CP2K| cp2kflags: omp libint fftw3 libxc elpa parallel mpi3 scalapack plumed2   
 CP2K| is freely available from                            https://www.cp2k.org/
 CP2K| Program compiled at                          Thu 10 Jun 17:43:51 BST 2021
 CP2K| Program compiled on                                                 uan01
 CP2K| Program compiled for                                              ARCHER2
 CP2K| Data directory path              /work/d118/d118/hjbio/CP2K/cp2k-8.2/data
 CP2K| Input file name                                          CBD_PHY-cp2k.inp

 GLOBAL| Force Environment number                                              1
 GLOBAL| Basis set file name                                           HFX_BASIS
 GLOBAL| Potential file name                                           POTENTIAL
 GLOBAL| MM Potential file name                                     MM_POTENTIAL
 GLOBAL| Coordinate file name                                        CBD_PHY.pdb
 GLOBAL| Method name                                                        CP2K
 GLOBAL| Project name                                               CBD_PHY-PBE0
 GLOBAL| Run type                                                             MD
 GLOBAL| FFT library                                                       FFTW3
 GLOBAL| Diagonalization library                                            ELPA
 GLOBAL| Minimum number of eigenvectors for ELPA usage                        16
 GLOBAL| Orthonormality check for eigenvectors                          DISABLED
 GLOBAL| Matrix multiplication library                                    SCALAP
 GLOBAL| All-to-all communication in single precision                          F
 GLOBAL| FFTs using library dependent lengths                                  F
 GLOBAL| Grid backend                                                       AUTO
 GLOBAL| Global print level                                                  LOW
 GLOBAL| MPI I/O enabled                                                       T
 GLOBAL| Total number of message passing processes                            16
 GLOBAL| Number of threads for this process                                    8
 GLOBAL| This output is from process                                           0
 GLOBAL| CPU model name                          AMD EPYC 7742 64-Core Processor
 GLOBAL| CPUID                                                              1002

 MEMORY| system memory details [Kb]
 MEMORY|                        rank 0           min           max       average
 MEMORY| MemTotal            263568576     263568576     263568576     263568576
 MEMORY| MemFree             250180460     250180460     250180460     250180460
 MEMORY| Buffers                318464        318464        318464        318464
 MEMORY| Cached                3294516       3294516       3294516       3294516
 MEMORY| Slab                  1798280       1798280       1798280       1798280
 MEMORY| SReclaimable           228752        228752        228752        228752
 MEMORY| MemLikelyFree       254022192     254022192     254022192     254022192



                      ************* ******** ***********   
                     ************* **********************  
                     ****     **** ****      ***********   
                     ******** ****  *******     ****       
                     *******  ****   *******   ****        
                     ****     ****       ****  ****        
                     ****     **** **********  ****        
                      ****     **** ********    ****       
                     FRONTIERS IN SIMULATION TECHNOLOGY    
                                                           
                        C.J. Mundy, S. Balasubramanian,    
                     Ken Bagchi, J. Hutter, Ari Seitsonen  
                      IFW Kuo, T. Laino, J. VandeVondele   
                                 Version 1.0               

                                                           


 EWALD| Summation is done by:                                               SPME
 EWALD| Alpha parameter [       ANGSTROM^-1]                              0.4000
 EWALD| Real Space Cutoff [          ANGSTROM]                            8.4348
 EWALD| G-space max. Miller index                         80        80        80
 EWALD| Spline interpolation order                                             6

 FORCEFIELD| WARNING: A non Critical ForceField parameter is missing! CP2K GOES!
 FORCEFIELD| Non critical parameters are:Urey-Bradley,Torsions,Impropers, Opbends and 1-4
 FORCEFIELD| All missing parameters will not contribute to the potential energy!
 FORCEFIELD| Activate the print key FF_INFO to have a list of missing parameters

 CHARGE_INFO| Total Charge of the Classical System:                    -0.825808

 SPLINE_INFO| Generating 101926 splines for NONBONDED14 interactions 
              Due to 451 different atomic kinds
  ...10192  ...20384  ...30576  ...40768  ...50960  ...61152  ...71344  ...81536  ...91728  ...101920
 SPLINE_INFO| Number of unique splines computed:            301
 SPLINE_INFO| Done

 SPLINE_INFO| Generating 101926 splines for NONBONDED interactions 
              Due to 451 different atomic kinds
  ...10192  ...20384  ...30576  ...40768  ...50960  ...61152  ...71344  ...81536  ...91728  ...101920
 SPLINE_INFO| Number of unique splines computed:            301
 SPLINE_INFO| Done

 *******************************************************************************
 *******************************************************************************
 **                                                                           **
 **     #####                         ##              ##                      **
 **    ##   ##            ##          ##              ##                      **
 **   ##     ##                       ##            ######                    **
 **   ##     ##  ##   ##  ##   #####  ##  ##   ####   ##    #####    #####    **
 **   ##     ##  ##   ##  ##  ##      ## ##   ##      ##   ##   ##  ##   ##   **
 **   ##  ## ##  ##   ##  ##  ##      ####     ###    ##   ######   ######    **
 **    ##  ###   ##   ##  ##  ##      ## ##      ##   ##   ##       ##        **
 **     #######   #####   ##   #####  ##  ##  ####    ##    #####   ##        **
 **           ##                                                    ##        **
 **                                                                           **
 **                                                ... make the atoms dance   **
 **                                                                           **
 **            Copyright (C) by CP2K developers group (2000-2021)             **
 **                      J. Chem. Phys. 152, 194103 (2020)                    **
 **                                                                           **
 *******************************************************************************


 TOTAL NUMBERS AND MAXIMUM NUMBERS

  Total number of            - Atomic kinds:                                   5
                             - Atoms:                                         68
                             - Shell sets:                                   340
                             - Shells:                                       445
                             - Primitive Cartesian functions:                476
                             - Cartesian basis functions:                   1137
                             - Spherical basis functions:                   1067

  Maximum angular momentum of- Orbital basis functions:                        2
                             - Local part of the GTH pseudopotential:          2
                             - Non-local part of the GTH pseudopotential:      0


 SCF PARAMETERS         Density guess:                                   RESTART
                        --------------------------------------------------------
                        max_scf:                                              30
                        max_scf_history:                                       0
                        max_diis:                                              4
                        --------------------------------------------------------
                        eps_scf:                                        1.00E-06
                        eps_scf_history:                                0.00E+00
                        eps_diis:                                       1.00E-01
                        eps_eigval:                                     1.00E-05
                        --------------------------------------------------------
                        level_shift [a.u.]:                                 0.00
                        --------------------------------------------------------
                        Outer loop SCF in use 
                        No variables optimised in outer loop
                        eps_scf                                         1.00E-06
                        max_scf                                               20
                        No outer loop optimization
                        step_size                                       5.00E-01

 *******************************************************************************
 *******************************************************************************
 **                                                                           **
 **             #######  ##     ## ##     ## ##     ##                        **
 **            ##     ## ###   ### ###   ### ###   ###                        **
 **            ##     ## #### #### #### #### #### ####                        **
 **            ##     ## ## ### ## ## ### ## ## ### ##                        **
 **            ##  ## ## ##     ## ##     ## ##     ##                        **
 **            ##    ##  ##     ## ##     ## ##     ##  T.Laino and F.Mohamed **
 **             ##### ## ##     ## ##     ## ##     ##  2005 - 2015           **
 **                                                                           **
 **                                                     Calculation Started.. **
 *******************************************************************************
 *******************************************************************************

 MD_PAR| Molecular dynamics protocol (MD input parameters)
 MD_PAR| Ensemble type                                                       NVE
 MD_PAR| Number of time steps                                                  6
 MD_PAR| Time step [fs]                                                 1.000000
 MD_PAR| Temperature [K]                                              300.000000
 MD_PAR| Temperature tolerance [K]                                      0.000000
 MD_PAR| Print MD information every                                    1 step(s)
 MD_PAR| File type   Print frequency [steps]                          File names
 MD_PAR| Coordinates          1                           CBD_PHY-PBE0-pos-1.xyz
 MD_PAR| Velocities           1                           CBD_PHY-PBE0-vel-1.xyz
 MD_PAR| Energies             1                              CBD_PHY-PBE0-1.ener
 MD_PAR| Dump                20                           CBD_PHY-PBE0-1.restart

 ROT| Rotational analysis information
 ROT| Principal axes and moments of inertia [a.u.]
 ROT|                           1                   2                   3
 ROT| Eigenvalues      1.56283164001E+13   1.56407408488E+13   1.56663418804E+13
 ROT|      x              0.901637047331     -0.018153263569      0.432112362589
 ROT|      y              0.323714777231      0.690893927917     -0.646431994388
 ROT|      z             -0.286808957117      0.722728191915      0.628812040859
 ROT| Number of rotovibrational vectors                                        6

 DOF| Calculation of degrees of freedom
 DOF| Number of atoms                                                     167923
 DOF| Number of intramolecular constraints                                     0
 DOF| Number of intermolecular constraints                                     0
 DOF| Invariants (translations + rotations)                                    3
 DOF| Degrees of freedom                                                  503766

 DOF| Restraints information
 DOF| Number of intramolecular restraints                                      0
 DOF| Number of intermolecular restraints                                      0

 MD_VEL| Velocities initialization
 MD_VEL| Initial temperature [K]                                      300.000000
 MD_VEL| COM velocity            -0.0000000000     0.0000000000     0.0000000000

  Translating the system in order to center the QM fragment in the QM box.

 Number of electrons:                                                        180
 Number of occupied orbitals:                                                 90
 Number of molecular orbitals:                                                90

 Number of orbital functions:                                               1067
 Number of independent orbital functions:                                   1067

 Extrapolation method: initial_guess


 SCF WAVEFUNCTION OPTIMIZATION

  ----------------------------------- OT ---------------------------------------
  Minimizer      : DIIS                : direct inversion
                                         in the iterative subspace
                                         using   7 DIIS vectors
                                         safer DIIS on
  Preconditioner : FULL_ALL            : diagonalization, state selective
  Precond_solver : DEFAULT
  stepsize       :    0.15000000                  energy_gap     :    0.08000000
  eps_taylor     :   0.10000E-15                  max_taylor     :             4
  ----------------------------------- OT ---------------------------------------

  Step     Update method      Time    Convergence         Total energy    Change
  ------------------------------------------------------------------------------
  Decoupling Energy:                                               0.0370647021
  Recoupling Energy:                                              -0.0063741479
     1 OT DIIS     0.15E+00   13.5     0.00129057      -255.9257316521 -2.56E+02
  Decoupling Energy:                                               0.0370576004
  Recoupling Energy:                                              -0.0063740314
     2 OT DIIS     0.15E+00    2.3     0.00057761      -255.9419521977 -1.62E-02
  Decoupling Energy:                                               0.0369596417
  Recoupling Energy:                                              -0.0063730135
     3 OT DIIS     0.15E+00    2.2     0.00038348      -255.9451217318 -3.17E-03
  Decoupling Energy:                                               0.0369795470
  Recoupling Energy:                                              -0.0063732416
     4 OT DIIS     0.15E+00    2.3     0.00009866      -255.9458275768 -7.06E-04
  Decoupling Energy:                                               0.0369716948
  Recoupling Energy:                                              -0.0063731487
     5 OT DIIS     0.15E+00    2.3     0.00003992      -255.9458779686 -5.04E-05
  Decoupling Energy:                                               0.0369737640
  Recoupling Energy:                                              -0.0063731649
     6 OT DIIS     0.15E+00    2.3     0.00001793      -255.9458894170 -1.14E-05
  Decoupling Energy:                                               0.0369741808
  Recoupling Energy:                                              -0.0063731680
     7 OT DIIS     0.15E+00    2.2     0.00000621      -255.9458922938 -2.88E-06
  Decoupling Energy:                                               0.0369727127
  Recoupling Energy:                                              -0.0063731518
     8 OT DIIS     0.15E+00    2.2     0.00000242      -255.9458926328 -3.39E-07
  Decoupling Energy:                                               0.0369731061
  Recoupling Energy:                                              -0.0063731556
     9 OT DIIS     0.15E+00    2.3     0.00000111      -255.9458926822 -4.94E-08
  Decoupling Energy:                                               0.0369728228
  Recoupling Energy:                                              -0.0063731526
    10 OT DIIS     0.15E+00    2.3     0.00000048      -255.9458926924 -1.02E-08

  *** SCF run converged in    10 steps ***


  Electronic density on regular grids:       -179.9999999999        0.0000000001
  Core density on regular grids:              180.9999999999       -0.0000000001
  Total charge density on r-space grids:        1.0000000000
  Total charge density g-space grids:           1.0000000000

  Overlap energy of the core charge distribution:               0.00001951532734
  Self energy of the core charge distribution:               -615.71576003586028
  Core Hamiltonian energy:                                    191.01363220818109
  Hartree energy:                                             248.20663869015897
  Exchange-correlation energy:                                -61.38430761263421
  Hartree-Fock Exchange energy:                               -18.10821018492845
  QM/MM Electrostatic energy:                                   0.04209472735397

  Total energy:                                              -255.94589269240154

  outer SCF iter =    1 RMS gradient =   0.48E-06 energy =       -255.9458926924
  outer SCF loop converged in   1 iterations or   10 steps

  Decoupling Energy:                                               0.0369728028
  Recoupling Energy:                                              -0.0063731523

 ENERGY| Total FORCE_EVAL ( QMMM ) energy [a.u.]:          -1088.110859624614250

 MD_INI| MD initialization
 MD_INI| Potential energy [hartree]                          -0.108811085962E+04
 MD_INI| Total kinetic energy [hartree]                       0.239300084734E+03
 MD_INI| QM kinetic energy [hartree]                          0.106639360339E+00
 MD_INI| Total temperature [K]                                        300.000000
 MD_INI| QM temperature [K]                                           330.137318
 MD_INI| Cell volume [bohr^3]                                 1.137316355424E+07
 MD_INI| Cell volume [ang^3]                                  1.685328937712E+06
 MD_INI| Cell lengths [bohr]      2.24884969E+02  2.24884969E+02  2.24884969E+02
 MD_INI| Cell lengths [ang]       1.19004000E+02  1.19004000E+02  1.19004000E+02
 MD_INI| Cell angles [deg]        9.00000000E+01  9.00000000E+01  9.00000000E+01

  Translating the system in order to center the QM fragment in the QM box.

 Number of electrons:                                                        180
 Number of occupied orbitals:                                                 90
 Number of molecular orbitals:                                                90

 Number of orbital functions:                                               1067
 Number of independent orbital functions:                                   1067

 Extrapolation method: ASPC


 SCF WAVEFUNCTION OPTIMIZATION

  ----------------------------------- OT ---------------------------------------
  Minimizer      : DIIS                : direct inversion
                                         in the iterative subspace
                                         using   7 DIIS vectors
                                         safer DIIS on
  Preconditioner : FULL_ALL            : diagonalization, state selective
  Precond_solver : DEFAULT
  stepsize       :    0.15000000                  energy_gap     :    0.08000000
  eps_taylor     :   0.10000E-15                  max_taylor     :             4
  ----------------------------------- OT ---------------------------------------

  Step     Update method      Time    Convergence         Total energy    Change
  ------------------------------------------------------------------------------
  Decoupling Energy:                                               0.0370014667
  Recoupling Energy:                                              -0.0063734172
     1 OT DIIS     0.15E+00    9.0     0.00075899      -255.7182133731 -2.56E+02
  Decoupling Energy:                                               0.0370082386
  Recoupling Energy:                                              -0.0063735355
     2 OT DIIS     0.15E+00    2.3     0.00032685      -255.7237312519 -5.52E-03
  Decoupling Energy:                                               0.0370087411
  Recoupling Energy:                                              -0.0063735590
     3 OT DIIS     0.15E+00    2.3     0.00019068      -255.7247685827 -1.04E-03
  Decoupling Energy:                                               0.0370199882
  Recoupling Energy:                                              -0.0063736817
     4 OT DIIS     0.15E+00    2.2     0.00006054      -255.7249610198 -1.92E-04
  Decoupling Energy:                                               0.0370216763
  Recoupling Energy:                                              -0.0063737045
     5 OT DIIS     0.15E+00    2.2     0.00001954      -255.7249775845 -1.66E-05
  Decoupling Energy:                                               0.0370210005
  Recoupling Energy:                                              -0.0063736984
     6 OT DIIS     0.15E+00    2.2     0.00000817      -255.7249798429 -2.26E-06
  Decoupling Energy:                                               0.0370221929
  Recoupling Energy:                                              -0.0063737124
     7 OT DIIS     0.15E+00    2.2     0.00000308      -255.7249803049 -4.62E-07
  Decoupling Energy:                                               0.0370222382
  Recoupling Energy:                                              -0.0063737132
     8 OT DIIS     0.15E+00    2.3     0.00000136      -255.7249803822 -7.72E-08
  Decoupling Energy:                                               0.0370224658
  Recoupling Energy:                                              -0.0063737159
     9 OT DIIS     0.15E+00    2.2     0.00000058      -255.7249803979 -1.57E-08

  *** SCF run converged in     9 steps ***


  Electronic density on regular grids:       -180.0000000000        0.0000000000
  Core density on regular grids:              180.9999999999       -0.0000000001
  Total charge density on r-space grids:        0.9999999999
  Total charge density g-space grids:           0.9999999999

  Overlap energy of the core charge distribution:               0.00002422739645
  Self energy of the core charge distribution:               -615.71576003586028
  Core Hamiltonian energy:                                    191.21094998359547
  Hartree energy:                                             248.07774808062644
  Exchange-correlation energy:                                -61.42683491522482
  Hartree-Fock Exchange energy:                               -18.12283147714504
  QM/MM Electrostatic energy:                                   0.25172373871868

  Total energy:                                              -255.72498039789309

  outer SCF iter =    1 RMS gradient =   0.58E-06 energy =       -255.7249803979
  outer SCF loop converged in   1 iterations or    9 steps

  Decoupling Energy:                                               0.0370224944
  Recoupling Energy:                                              -0.0063737164

 ENERGY| Total FORCE_EVAL ( QMMM ) energy [a.u.]:          -1059.962356567709321

 MD| ***************************************************************************
 MD| Step number                                                               1
 MD| Time [fs]                                                          1.000000
 MD| Conserved quantity [hartree]                            -0.841461427193E+03
 MD| ---------------------------------------------------------------------------
 MD|                                          Instantaneous             Averages
 MD| CPU time per MD step [s]                    161.788814           161.788814
 MD| Energy drift per atom [K]           0.138202490526E+02   0.000000000000E+00
 MD| Potential energy [hartree]         -0.105996235657E+04  -0.105996235657E+04
 MD| Total kinetic energy [hartree]      0.218500929375E+03   0.218500929375E+03
 MD| QM kinetic energy [hartree]         0.121347250139E+00   0.121347250139E+00
 MD| Total temperature [K]                       273.925013           273.925013
 MD| QM temperature [K]                          375.670443           375.670443
 MD| ***************************************************************************

  Translating the system in order to center the QM fragment in the QM box.

 Number of electrons:                                                        180
 Number of occupied orbitals:                                                 90
 Number of molecular orbitals:                                                90

 Number of orbital functions:                                               1067
 Number of independent orbital functions:                                   1067

 Extrapolation method: ASPC


 SCF WAVEFUNCTION OPTIMIZATION

  ----------------------------------- OT ---------------------------------------
  Minimizer      : DIIS                : direct inversion
                                         in the iterative subspace
                                         using   7 DIIS vectors
                                         safer DIIS on
  Preconditioner : FULL_ALL            : diagonalization, state selective
  Precond_solver : DEFAULT
  stepsize       :    0.15000000                  energy_gap     :    0.08000000
  eps_taylor     :   0.10000E-15                  max_taylor     :             4
  ----------------------------------- OT ---------------------------------------

  Step     Update method      Time    Convergence         Total energy    Change
  ------------------------------------------------------------------------------
  Decoupling Energy:                                               0.0370781907
  Recoupling Energy:                                              -0.0063743357
     1 OT DIIS     0.15E+00    8.8     0.00029255      -255.3622522799 -2.55E+02
  Decoupling Energy:                                               0.0370714498
  Recoupling Energy:                                              -0.0063742686
     2 OT DIIS     0.15E+00    2.3     0.00012379      -255.3630880655 -8.36E-04
  Decoupling Energy:                                               0.0370747212
  Recoupling Energy:                                              -0.0063743003
     3 OT DIIS     0.15E+00    2.2     0.00005679      -255.3632553887 -1.67E-04
  Decoupling Energy:                                               0.0370720792
  Recoupling Energy:                                              -0.0063742776
     4 OT DIIS     0.15E+00    2.2     0.00001757      -255.3632741820 -1.88E-05
  Decoupling Energy:                                               0.0370725498
  Recoupling Energy:                                              -0.0063742816
     5 OT DIIS     0.15E+00    2.2     0.00000682      -255.3632757089 -1.53E-06
  Decoupling Energy:                                               0.0370729668
  Recoupling Energy:                                              -0.0063742867
     6 OT DIIS     0.15E+00    2.2     0.00000313      -255.3632759666 -2.58E-07
  Decoupling Energy:                                               0.0370729516
  Recoupling Energy:                                              -0.0063742866
     7 OT DIIS     0.15E+00    2.3     0.00000105      -255.3632760276 -6.10E-08
  Decoupling Energy:                                               0.0370730095
  Recoupling Energy:                                              -0.0063742873
     8 OT DIIS     0.15E+00    2.3     0.00000048      -255.3632760378 -1.02E-08

  *** SCF run converged in     8 steps ***


  Electronic density on regular grids:       -180.0000000000       -0.0000000000
  Core density on regular grids:              180.9999999999       -0.0000000001
  Total charge density on r-space grids:        0.9999999998
  Total charge density g-space grids:           0.9999999998

  Overlap energy of the core charge distribution:               0.00005088934835
  Self energy of the core charge distribution:               -615.71576003586028
  Core Hamiltonian energy:                                    191.44418594762311
  Hartree energy:                                             247.94136675356197
  Exchange-correlation energy:                                -61.47332429463427
  Hartree-Fock Exchange energy:                               -18.13880644293426
  QM/MM Electrostatic energy:                                   0.57901114514036

  Total energy:                                              -255.36327603775501

  outer SCF iter =    1 RMS gradient =   0.48E-06 energy =       -255.3632760378
  outer SCF loop converged in   1 iterations or    8 steps

  Decoupling Energy:                                               0.0370730262
  Recoupling Energy:                                              -0.0063742875

 ENERGY| Total FORCE_EVAL ( QMMM ) energy [a.u.]:          -1061.235329407249537

 MD| ***************************************************************************
 MD| Step number                                                               2
 MD| Time [fs]                                                          2.000000
 MD| Conserved quantity [hartree]                            -0.842817775051E+03
 MD| ---------------------------------------------------------------------------
 MD|                                          Instantaneous             Averages
 MD| CPU time per MD step [s]                     73.686151           117.737483
 MD| Energy drift per atom [K]           0.112696736845E+02   0.563483684226E+01
 MD| Potential energy [hartree]         -0.106123532941E+04  -0.106059884299E+04
 MD| Total kinetic energy [hartree]      0.218417554356E+03   0.218459241865E+03
 MD| QM kinetic energy [hartree]         0.111577831570E+00   0.116462540855E+00
 MD| Total temperature [K]                       273.820489           273.872751
 MD| QM temperature [K]                          345.425985           360.548214
 MD| ***************************************************************************

  Translating the system in order to center the QM fragment in the QM box.

 Number of electrons:                                                        180
 Number of occupied orbitals:                                                 90
 Number of molecular orbitals:                                                90

 Number of orbital functions:                                               1067
 Number of independent orbital functions:                                   1067

 Extrapolation method: ASPC


 SCF WAVEFUNCTION OPTIMIZATION

  ----------------------------------- OT ---------------------------------------
  Minimizer      : DIIS                : direct inversion
                                         in the iterative subspace
                                         using   7 DIIS vectors
                                         safer DIIS on
  Preconditioner : FULL_ALL            : diagonalization, state selective
  Precond_solver : DEFAULT
  stepsize       :    0.15000000                  energy_gap     :    0.08000000
  eps_taylor     :   0.10000E-15                  max_taylor     :             4
  ----------------------------------- OT ---------------------------------------

  Step     Update method      Time    Convergence         Total energy    Change
  ------------------------------------------------------------------------------
  Decoupling Energy:                                               0.0371231193
  Recoupling Energy:                                              -0.0063748338
     1 OT DIIS     0.15E+00    8.8     0.00057316      -254.8840261230 -2.55E+02
  Decoupling Energy:                                               0.0371264141
  Recoupling Energy:                                              -0.0063748791
     2 OT DIIS     0.15E+00    2.3     0.00022569      -254.8871524214 -3.13E-03
  Decoupling Energy:                                               0.0371270565
  Recoupling Energy:                                              -0.0063748842
     3 OT DIIS     0.15E+00    2.2     0.00008232      -254.8877078722 -5.55E-04
  Decoupling Energy:                                               0.0371223498
  Recoupling Energy:                                              -0.0063748375
     4 OT DIIS     0.15E+00    2.3     0.00002753      -254.8877581298 -5.03E-05
  Decoupling Energy:                                               0.0371233175
  Recoupling Energy:                                              -0.0063748478
     5 OT DIIS     0.15E+00    2.3     0.00001037      -254.8877619342 -3.80E-06
  Decoupling Energy:                                               0.0371231661
  Recoupling Energy:                                              -0.0063748451
     6 OT DIIS     0.15E+00    2.2     0.00000440      -254.8877625201 -5.86E-07
  Decoupling Energy:                                               0.0371230865
  Recoupling Energy:                                              -0.0063748447
     7 OT DIIS     0.15E+00    2.3     0.00000136      -254.8877626105 -9.04E-08
  Decoupling Energy:                                               0.0371230886
  Recoupling Energy:                                              -0.0063748447
     8 OT DIIS     0.15E+00    2.2     0.00000059      -254.8877626213 -1.08E-08

  *** SCF run converged in     8 steps ***


  Electronic density on regular grids:       -180.0000000003       -0.0000000003
  Core density on regular grids:              180.9999999999       -0.0000000001
  Total charge density on r-space grids:        0.9999999996
  Total charge density g-space grids:           0.9999999996

  Overlap energy of the core charge distribution:               0.00005124468767
  Self energy of the core charge distribution:               -615.71576003586028
  Core Hamiltonian energy:                                    191.49123904249689
  Hartree energy:                                             247.90729471720522
  Exchange-correlation energy:                                -61.48094287116398
  Hartree-Fock Exchange energy:                               -18.14140078745957
  QM/MM Electrostatic energy:                                   1.05175606875073

  Total energy:                                              -254.88776262134326

  outer SCF iter =    1 RMS gradient =   0.59E-06 energy =       -254.8877626213
  outer SCF loop converged in   1 iterations or    8 steps

  Decoupling Energy:                                               0.0371230886
  Recoupling Energy:                                              -0.0063748447

 ENERGY| Total FORCE_EVAL ( QMMM ) energy [a.u.]:          -1082.045341113831910

 MD| ***************************************************************************
 MD| Step number                                                               3
 MD| Time [fs]                                                          3.000000
 MD| Conserved quantity [hartree]                            -0.846392351010E+03
 MD| ---------------------------------------------------------------------------
 MD|                                          Instantaneous             Averages
 MD| CPU time per MD step [s]                     75.135575           103.536847
 MD| Energy drift per atom [K]           0.454778052606E+01   0.527248473686E+01
 MD| Potential energy [hartree]         -0.108204534111E+04  -0.106774767570E+04
 MD| Total kinetic energy [hartree]      0.235652990103E+03   0.224190491278E+03
 MD| QM kinetic energy [hartree]         0.117355898674E+00   0.116760326794E+00
 MD| Total temperature [K]                       295.427798           281.057767
 MD| QM temperature [K]                          363.313898           361.470109
 MD| ***************************************************************************

  Translating the system in order to center the QM fragment in the QM box.

 Number of electrons:                                                        180
 Number of occupied orbitals:                                                 90
 Number of molecular orbitals:                                                90

 Number of orbital functions:                                               1067
 Number of independent orbital functions:                                   1067

 Extrapolation method: ASPC


 SCF WAVEFUNCTION OPTIMIZATION

  ----------------------------------- OT ---------------------------------------
  Minimizer      : DIIS                : direct inversion
                                         in the iterative subspace
                                         using   7 DIIS vectors
                                         safer DIIS on
  Preconditioner : FULL_ALL            : diagonalization, state selective
  Precond_solver : DEFAULT
  stepsize       :    0.15000000                  energy_gap     :    0.08000000
  eps_taylor     :   0.10000E-15                  max_taylor     :             4
  ----------------------------------- OT ---------------------------------------

  Step     Update method      Time    Convergence         Total energy    Change
  ------------------------------------------------------------------------------
  Decoupling Energy:                                               0.0371655627
  Recoupling Energy:                                              -0.0063753290
     1 OT DIIS     0.15E+00    8.8     0.00026659      -254.3373015397 -2.54E+02
  Decoupling Energy:                                               0.0371741595
  Recoupling Energy:                                              -0.0063754089
     2 OT DIIS     0.15E+00    2.3     0.00010693      -254.3379918938 -6.90E-04
  Decoupling Energy:                                               0.0371692531
  Recoupling Energy:                                              -0.0063753584
     3 OT DIIS     0.15E+00    2.3     0.00004022      -254.3381199661 -1.28E-04
  Decoupling Energy:                                               0.0371714163
  Recoupling Energy:                                              -0.0063753806
     4 OT DIIS     0.15E+00    2.2     0.00001284      -254.3381299045 -9.94E-06
  Decoupling Energy:                                               0.0371702881
  Recoupling Energy:                                              -0.0063753696
     5 OT DIIS     0.15E+00    2.2     0.00000543      -254.3381307571 -8.53E-07
  Decoupling Energy:                                               0.0371705184
  Recoupling Energy:                                              -0.0063753713
     6 OT DIIS     0.15E+00    2.2     0.00000188      -254.3381308972 -1.40E-07
  Decoupling Energy:                                               0.0371705394
  Recoupling Energy:                                              -0.0063753718
     7 OT DIIS     0.15E+00    2.2     0.00000064      -254.3381309159 -1.87E-08

  *** SCF run converged in     7 steps ***


  Electronic density on regular grids:       -179.9999999999        0.0000000001
  Core density on regular grids:              180.9999999999       -0.0000000001
  Total charge density on r-space grids:        1.0000000000
  Total charge density g-space grids:           1.0000000000

  Overlap energy of the core charge distribution:               0.00002358439687
  Self energy of the core charge distribution:               -615.71576003586028
  Core Hamiltonian energy:                                    191.34732773481420
  Hartree energy:                                             247.97609113194346
  Exchange-correlation energy:                                -61.44936705830898
  Hartree-Fock Exchange energy:                               -18.13041715348364
  QM/MM Electrostatic energy:                                   1.63397088062574

  Total energy:                                              -254.33813091587263

  outer SCF iter =    1 RMS gradient =   0.64E-06 energy =       -254.3381309159
  outer SCF loop converged in   1 iterations or    7 steps

  Decoupling Energy:                                               0.0371704711
  Recoupling Energy:                                              -0.0063753710

 ENERGY| Total FORCE_EVAL ( QMMM ) energy [a.u.]:          -1079.714052851506040

 MD| ***************************************************************************
 MD| Step number                                                               4
 MD| Time [fs]                                                          4.000000
 MD| Conserved quantity [hartree]                            -0.842113596836E+03
 MD| ---------------------------------------------------------------------------
 MD|                                          Instantaneous             Averages
 MD| CPU time per MD step [s]                     71.336661            95.486800
 MD| Energy drift per atom [K]           0.125938617229E+02   0.710282898337E+01
 MD| Potential energy [hartree]         -0.107971405285E+04  -0.107073926999E+04
 MD| Total kinetic energy [hartree]      0.237600456015E+03   0.227542982462E+03
 MD| QM kinetic energy [hartree]         0.148327916178E+00   0.124652224140E+00
 MD| Total temperature [K]                       297.869250           285.260638
 MD| QM temperature [K]                          459.197995           385.902080
 MD| ***************************************************************************

  Translating the system in order to center the QM fragment in the QM box.

 Number of electrons:                                                        180
 Number of occupied orbitals:                                                 90
 Number of molecular orbitals:                                                90

 Number of orbital functions:                                               1067
 Number of independent orbital functions:                                   1067

 Extrapolation method: ASPC


 SCF WAVEFUNCTION OPTIMIZATION

  ----------------------------------- OT ---------------------------------------
  Minimizer      : DIIS                : direct inversion
                                         in the iterative subspace
                                         using   7 DIIS vectors
                                         safer DIIS on
  Preconditioner : FULL_ALL            : diagonalization, state selective
  Precond_solver : DEFAULT
  stepsize       :    0.15000000                  energy_gap     :    0.08000000
  eps_taylor     :   0.10000E-15                  max_taylor     :             4
  ----------------------------------- OT ---------------------------------------

  Step     Update method      Time    Convergence         Total energy    Change
  ------------------------------------------------------------------------------
  Decoupling Energy:                                               0.0372100776
  Recoupling Energy:                                              -0.0063758439
     1 OT DIIS     0.15E+00    8.8     0.00032124      -253.7449323179 -2.54E+02
  Decoupling Energy:                                               0.0372073521
  Recoupling Energy:                                              -0.0063758036
     2 OT DIIS     0.15E+00    2.3     0.00013157      -253.7458486230 -9.16E-04
  Decoupling Energy:                                               0.0372092658
  Recoupling Energy:                                              -0.0063758203
     3 OT DIIS     0.15E+00    2.3     0.00006245      -253.7460069580 -1.58E-04
  Decoupling Energy:                                               0.0372088865
  Recoupling Energy:                                              -0.0063758163
     4 OT DIIS     0.15E+00    2.3     0.00002456      -253.7460380691 -3.11E-05
  Decoupling Energy:                                               0.0372096137
  Recoupling Energy:                                              -0.0063758218
     5 OT DIIS     0.15E+00    2.3     0.00000528      -253.7460406384 -2.57E-06
  Decoupling Energy:                                               0.0372093074
  Recoupling Energy:                                              -0.0063758193
     6 OT DIIS     0.15E+00    2.2     0.00000252      -253.7460407831 -1.45E-07
  Decoupling Energy:                                               0.0372093093
  Recoupling Energy:                                              -0.0063758192
     7 OT DIIS     0.15E+00    2.2     0.00000088      -253.7460408155 -3.24E-08

  *** SCF run converged in     7 steps ***


  Electronic density on regular grids:       -180.0000000000       -0.0000000000
  Core density on regular grids:              180.9999999999       -0.0000000001
  Total charge density on r-space grids:        0.9999999998
  Total charge density g-space grids:           0.9999999998

  Overlap energy of the core charge distribution:               0.00001841778854
  Self energy of the core charge distribution:               -615.71576003586028
  Core Hamiltonian energy:                                    191.22473474671304
  Hartree energy:                                             248.04795642483344
  Exchange-correlation energy:                                -61.41798756010962
  Hartree-Fock Exchange energy:                               -18.11952164646272
  QM/MM Electrostatic energy:                                   2.23451883761319

  Total energy:                                              -253.74604081548446

  outer SCF iter =    1 RMS gradient =   0.88E-06 energy =       -253.7460408155
  outer SCF loop converged in   1 iterations or    7 steps

  Decoupling Energy:                                               0.0372093343
  Recoupling Energy:                                              -0.0063758194

 ENERGY| Total FORCE_EVAL ( QMMM ) energy [a.u.]:          -1094.307010721286360

 MD| ***************************************************************************
 MD| Step number                                                               5
 MD| Time [fs]                                                          5.000000
 MD| Conserved quantity [hartree]                            -0.848389416036E+03
 MD| ---------------------------------------------------------------------------
 MD|                                          Instantaneous             Averages
 MD| CPU time per MD step [s]                     73.108245            91.011089
 MD| Energy drift per atom [K]           0.792353899341E+00   0.584073396657E+01
 MD| Potential energy [hartree]         -0.109430701072E+04  -0.107545281813E+04
 MD| Total kinetic energy [hartree]      0.245917594685E+03   0.231217904907E+03
 MD| QM kinetic energy [hartree]         0.157564497501E+00   0.131234678813E+00
 MD| Total temperature [K]                       308.296081           289.867726
 MD| QM temperature [K]                          487.792880           406.280240
 MD| ***************************************************************************

  Translating the system in order to center the QM fragment in the QM box.

 Number of electrons:                                                        180
 Number of occupied orbitals:                                                 90
 Number of molecular orbitals:                                                90

 Number of orbital functions:                                               1067
 Number of independent orbital functions:                                   1067

 Extrapolation method: ASPC


 SCF WAVEFUNCTION OPTIMIZATION

  ----------------------------------- OT ---------------------------------------
  Minimizer      : DIIS                : direct inversion
                                         in the iterative subspace
                                         using   7 DIIS vectors
                                         safer DIIS on
  Preconditioner : FULL_ALL            : diagonalization, state selective
  Precond_solver : DEFAULT
  stepsize       :    0.15000000                  energy_gap     :    0.08000000
  eps_taylor     :   0.10000E-15                  max_taylor     :             4
  ----------------------------------- OT ---------------------------------------

  Step     Update method      Time    Convergence         Total energy    Change
  ------------------------------------------------------------------------------
  Decoupling Energy:                                               0.0372440067
  Recoupling Energy:                                              -0.0063762167
     1 OT DIIS     0.15E+00    8.8     0.00048946      -253.1925176531 -2.53E+02
  Decoupling Energy:                                               0.0372419648
  Recoupling Energy:                                              -0.0063762267
     2 OT DIIS     0.15E+00    2.3     0.00019211      -253.1946646051 -2.15E-03
  Decoupling Energy:                                               0.0372396753
  Recoupling Energy:                                              -0.0063761951
     3 OT DIIS     0.15E+00    2.2     0.00008083      -253.1950213957 -3.57E-04
  Decoupling Energy:                                               0.0372398412
  Recoupling Energy:                                              -0.0063761984
     4 OT DIIS     0.15E+00    2.2     0.00002281      -253.1950803058 -5.89E-05
  Decoupling Energy:                                               0.0372388197
  Recoupling Energy:                                              -0.0063761874
     5 OT DIIS     0.15E+00    2.2     0.00000855      -253.1950829194 -2.61E-06
  Decoupling Energy:                                               0.0372394752
  Recoupling Energy:                                              -0.0063761927
     6 OT DIIS     0.15E+00    2.2     0.00000297      -253.1950832868 -3.67E-07
  Decoupling Energy:                                               0.0372392421
  Recoupling Energy:                                              -0.0063761906
     7 OT DIIS     0.15E+00    2.2     0.00000088      -253.1950833294 -4.26E-08

  *** SCF run converged in     7 steps ***


  Electronic density on regular grids:       -180.0000000000       -0.0000000000
  Core density on regular grids:              180.9999999999       -0.0000000001
  Total charge density on r-space grids:        0.9999999998
  Total charge density g-space grids:           0.9999999998

  Overlap energy of the core charge distribution:               0.00001843290604
  Self energy of the core charge distribution:               -615.71576003586028
  Core Hamiltonian energy:                                    191.21895508929421
  Hartree energy:                                             248.05852956743891
  Exchange-correlation energy:                                -61.40902755002653
  Hartree-Fock Exchange energy:                               -18.11645362372182
  QM/MM Electrostatic energy:                                   2.76865479058782

  Total energy:                                              -253.19508332938165

  outer SCF iter =    1 RMS gradient =   0.88E-06 energy =       -253.1950833294
  outer SCF loop converged in   1 iterations or    7 steps

  Decoupling Energy:                                               0.0372392261
  Recoupling Energy:                                              -0.0063761903

 ENERGY| Total FORCE_EVAL ( QMMM ) energy [a.u.]:          -1057.339964363201489

 MD| ***************************************************************************
 MD| Step number                                                               6
 MD| Time [fs]                                                          6.000000
 MD| Conserved quantity [hartree]                            -0.842900323714E+03
 MD| ---------------------------------------------------------------------------
 MD|                                          Instantaneous             Averages
 MD| CPU time per MD step [s]                     71.265301            87.720125
 MD| Energy drift per atom [K]           0.111144431632E+02   0.671968549934E+01
 MD| Potential energy [hartree]         -0.105733996436E+04  -0.107243400917E+04
 MD| Total kinetic energy [hartree]      0.214439640649E+03   0.228421527531E+03
 MD| QM kinetic energy [hartree]         0.141132305828E+00   0.132884283315E+00
 MD| Total temperature [K]                       268.833554           286.362031
 MD| QM temperature [K]                          436.921610           411.387135
 MD| ***************************************************************************

 -------------------------------------------------------------------------------
 -                                                                             -
 -                                DBCSR STATISTICS                             -
 -                                                                             -
 -------------------------------------------------------------------------------
 COUNTER                                    TOTAL       BLAS       SMM       ACC
 flops    26 x    26 x    26             13709280     100.0%      0.0%      0.0%
 flops    22 x    26 x    26             15615600     100.0%      0.0%      0.0%
 flops    22 x    26 x    32             20500480     100.0%      0.0%      0.0%
 flops    22 x    32 x    26             20500480     100.0%      0.0%      0.0%
 flops     9 x    26 x    26             23253048     100.0%      0.0%      0.0%
 flops    40 x    26 x    26             30284800     100.0%      0.0%      0.0%
 flops    26 x    26 x    32             33745920     100.0%      0.0%      0.0%
 flops    26 x    32 x    26             33745920     100.0%      0.0%      0.0%
 flops    32 x    26 x    26             33745920     100.0%      0.0%      0.0%
 flops    22 x    26 x   261             37621584     100.0%      0.0%      0.0%
 flops    22 x    26 x   266             38342304     100.0%      0.0%      0.0%
 flops     9 x    32 x    26             50319360     100.0%      0.0%      0.0%
 flops     9 x    26 x    32             50319360     100.0%      0.0%      0.0%
 flops    22 x    32 x    32             72540160     100.0%      0.0%      0.0%
 flops    40 x    32 x    26             74547200     100.0%      0.0%      0.0%
 flops    40 x    26 x    32             74547200     100.0%      0.0%      0.0%
 flops    22 x    26 x   270             77837760     100.0%      0.0%      0.0%
 flops    26 x    26 x   261             81513432     100.0%      0.0%      0.0%
 flops    32 x    32 x    26             83066880     100.0%      0.0%      0.0%
 flops    26 x    32 x    32             83066880     100.0%      0.0%      0.0%
 flops    32 x    26 x    32             83066880     100.0%      0.0%      0.0%
 flops    26 x    26 x   266             83074992     100.0%      0.0%      0.0%
 flops     9 x    26 x   261             92343888     100.0%      0.0%      0.0%
 flops    22 x    32 x   261             92606976     100.0%      0.0%      0.0%
 flops     9 x    26 x   266             94112928     100.0%      0.0%      0.0%
 flops    22 x    32 x   266             94381056     100.0%      0.0%      0.0%
 flops    53 x    26 x    26            100318400     100.0%      0.0%      0.0%
 flops    31 x    26 x    26            117353600     100.0%      0.0%      0.0%
 flops     9 x    32 x    32            132378624     100.0%      0.0%      0.0%
 flops    40 x    26 x   261            136805760     100.0%      0.0%      0.0%
 flops    40 x    26 x   266            139426560     100.0%      0.0%      0.0%
 flops     9 x     9 x    26            165405240     100.0%      0.0%      0.0%
 flops    26 x    26 x   270            168648480     100.0%      0.0%      0.0%
 flops    40 x    32 x    32            183500800     100.0%      0.0%      0.0%
 flops     9 x    26 x   270            191056320     100.0%      0.0%      0.0%
 flops    22 x    32 x   270            191600640     100.0%      0.0%      0.0%
 flops    26 x    32 x   261            200648448     100.0%      0.0%      0.0%
 flops    32 x    26 x   261            200648448     100.0%      0.0%      0.0%
 flops    32 x    32 x    32            204472320     100.0%      0.0%      0.0%
 flops    26 x    32 x   266            204492288     100.0%      0.0%      0.0%
 flops    32 x    26 x   266            204492288     100.0%      0.0%      0.0%
 flops     9 x    32 x   261            227308032     100.0%      0.0%      0.0%
 flops     9 x    32 x   266            231662592     100.0%      0.0%      0.0%
 flops    53 x    26 x    32            246937600     100.0%      0.0%      0.0%
 flops    53 x    32 x    26            246937600     100.0%      0.0%      0.0%
 flops    40 x    26 x   270            283046400     100.0%      0.0%      0.0%
 flops    31 x    32 x    26            288870400     100.0%      0.0%      0.0%
 flops    31 x    26 x    32            288870400     100.0%      0.0%      0.0%
 flops    40 x    32 x   261            336752640     100.0%      0.0%      0.0%
 flops    40 x    32 x   266            343203840     100.0%      0.0%      0.0%
 flops     9 x     9 x    32            407151360     100.0%      0.0%      0.0%
 flops    26 x    32 x   270            415134720     100.0%      0.0%      0.0%
 flops    32 x    26 x   270            415134720     100.0%      0.0%      0.0%
 flops    22 x     9 x    26            415855440     100.0%      0.0%      0.0%
 flops     9 x    22 x    26            416576160     100.0%      0.0%      0.0%
 flops    53 x    26 x   261            453169080     100.0%      0.0%      0.0%
 flops    53 x    26 x   266            461850480     100.0%      0.0%      0.0%
 flops     9 x    32 x   270            470292480     100.0%      0.0%      0.0%
 flops    32 x    32 x   261            493903872     100.0%      0.0%      0.0%
 flops    32 x    32 x   266            503365632     100.0%      0.0%      0.0%
 flops    31 x    26 x   261            530122320     100.0%      0.0%      0.0%
 flops    31 x    26 x   266            540277920     100.0%      0.0%      0.0%
 flops    53 x    32 x    32            607846400     100.0%      0.0%      0.0%
 flops    40 x    32 x   270            696729600     100.0%      0.0%      0.0%
 flops    31 x    32 x    32            711065600     100.0%      0.0%      0.0%
 flops     9 x    26 x     9            802701900     100.0%      0.0%      0.0%
 flops    53 x    26 x   270            937591200     100.0%      0.0%      0.0%
 flops    32 x    32 x   270           1021870080     100.0%      0.0%      0.0%
 flops    22 x     9 x    32           1023644160     100.0%      0.0%      0.0%
 flops     9 x    22 x    32           1025418240     100.0%      0.0%      0.0%
 flops    31 x    26 x   270           1096804800     100.0%      0.0%      0.0%
 flops    22 x    22 x    26           1109908800     100.0%      0.0%      0.0%
 flops    53 x    32 x   261           1115493120     100.0%      0.0%      0.0%
 flops    53 x    32 x   266           1136862720     100.0%      0.0%      0.0%
 flops    31 x    32 x   261           1304916480     100.0%      0.0%      0.0%
 flops    31 x    32 x   266           1329914880     100.0%      0.0%      0.0%
 flops     9 x    32 x     9           1975881600     100.0%      0.0%      0.0%
 flops     9 x    26 x    22           2081079000     100.0%      0.0%      0.0%
 flops    22 x    26 x     9           2081079000     100.0%      0.0%      0.0%
 flops    53 x    32 x   270           2307916800     100.0%      0.0%      0.0%
 flops    31 x    32 x   270           2699827200     100.0%      0.0%      0.0%
 flops    22 x    22 x    32           2732083200     100.0%      0.0%      0.0%
 flops    22 x    32 x     9           5122656000     100.0%      0.0%      0.0%
 flops     9 x    32 x    22           5122656000     100.0%      0.0%      0.0%
 flops    22 x    26 x    22           5395390000     100.0%      0.0%      0.0%
 flops    22 x    32 x    22          13280960000     100.0%      0.0%      0.0%
 flops inhomo. stacks                 11029132800     100.0%      0.0%      0.0%
 flops total                        79.795512E+09     100.0%      0.0%      0.0%
 flops max/rank                      7.292060E+09     100.0%      0.0%      0.0%
 matmuls inhomo. stacks                     24192     100.0%      0.0%      0.0%
 matmuls total                            3061494     100.0%      0.0%      0.0%
 number of processed stacks                449619     100.0%      0.0%      0.0%
 average stack size                                     6.8       0.0       0.0
 marketing flops                    85.671830E+09
 -------------------------------------------------------------------------------
 # multiplications                           1286
 max memory usage/rank               4.468609E+09
 # max total images/rank                        1
 # max 3D layers                                1
 # MPI messages exchanged                  123456
 MPI messages size (bytes):
  total size                        11.173573E+09
  min size                           0.000000E+00
  max size                         583.200000E+03
  average size                      90.506516E+03
 MPI breakdown and total messages size (bytes):
             size <=      128               37485                        0
       128 < size <=     8192               28683                206521632
      8192 < size <=    32768                   0                        0
     32768 < size <=   131072               42840               2742616800
    131072 < size <=  4194304               14448               8224444536
   4194304 < size <= 16777216                   0                        0
  16777216 < size                               0                        0
 -------------------------------------------------------------------------------
 -                                                                             -
 -                      DBCSR MESSAGE PASSING PERFORMANCE                      -
 -                                                                             -
 -------------------------------------------------------------------------------
 ROUTINE             CALLS      AVE VOLUME [Bytes]
 MP_Bcast               87                     12.
 MP_Allreduce         6922                      8.
 MP_Alltoall          5344                  20041.
 MP_ISend            20548                  38358.
 MP_IRecv            20548                  36306.
 -------------------------------------------------------------------------------

 -------------------------------------------------------------------------------
 -                                                                             -
 -                                GRID STATISTICS                              -
 -                                                                             -
 -------------------------------------------------------------------------------
 LP    KERNEL             BACKEND                              COUNT     PERCENT
 2     collocate ortho    REF                                1126269      19.20%
 2     integrate ortho    REF                                1106014      18.85%
 1     collocate ortho    REF                                 943978      16.09%
 1     integrate ortho    REF                                 870340      14.83%
 3     integrate ortho    REF                                 570062       9.72%
 3     collocate ortho    REF                                 500530       8.53%
 0     collocate ortho    REF                                 281245       4.79%
 0     integrate ortho    REF                                 249988       4.26%
 4     integrate ortho    REF                                 121240       2.07%
 4     collocate ortho    REF                                  73823       1.26%
 5     integrate ortho    REF                                   8201       0.14%
 0     collocate general  REF                                   7616       0.13%
 1     integrate general  REF                                   7616       0.13%
 -------------------------------------------------------------------------------

 MEMORY| Estimated peak process memory [MiB]                                4293

 -------------------------------------------------------------------------------
 -                                                                             -
 -                         MESSAGE PASSING PERFORMANCE                         -
 -                                                                             -
 -------------------------------------------------------------------------------

 ROUTINE             CALLS      AVE VOLUME [Bytes]
 MP_Group                8
 MP_Bcast             6935               10576129.
 MP_Allreduce         2453                1675497.
 MP_Sync               430
 MP_Alltoall          1344               71189870.
 MP_ISendRecv         6195                 195908.
 MP_Wait             12964
 MP_comm_split          14
 MP_ISend             5887                1348673.
 MP_IRecv             5880                1349303.
 MP_Recv                21                 196328.
 -------------------------------------------------------------------------------


 -------------------------------------------------------------------------------
 -                                                                             -
 -                           R E F E R E N C E S                               -
 -                                                                             -
 -------------------------------------------------------------------------------
 
 CP2K version 8.2, the CP2K developers group (2021).
 CP2K is freely available from https://www.cp2k.org/ .

 Kuehne,Thomas D.; Iannuzzi,Marcella; Del Ben,Mauro;
 Rybkin,Vladimir V.; Seewald,Patrick; Stein,Frederick; Laino,Teodoro;
 Khaliullin,Rustam Z.; Schuett,Ole; Schiffmann,Florian; Golze,Dorothea;
 Wilhelm,Jan; Chulkov,Sergey; Bani-Hashemian,Mohammad Hossein;
 Weber,Valery; Borstnik,Urban; Taillefumier,Mathieu;
 Jakobovits,Alice Shoshana; Lazzaro,Alfio; Pabst,Hans; Mueller,Tiziano;
 Schade,Robert; Guidon,Manuel; Andermatt,Samuel; Holmberg,Nico;
 Schenter,Gregory K.; Hehn,Anna; Bussy,Augustin; Belleflamme,Fabian;
 Tabacchi,Gloria; Gloess,Andreas; Lass,Michael; Bethune,Iain;
 Mundy,Christopher J.; Plessl,Christian; Watkins,Matt;
 VandeVondele,Joost; Krack,Matthias; Hutter,Juerg. 
 The Journal of Chemical Physics, 152 (19), (2020). 
 CP2K: An electronic structure and molecular dynamics software package -
 Quickstep: Efficient and accurate electronic structure calculations.
 https://doi.org/10.1063/5.0007045

 Schuett, Ole; Messmer, Peter; Hutter, Juerg; VandeVondele, Joost. 
 Electronic Structure Calculations on Graphics Processing Units, John
 Wiley & Sons, Ltd, 173-190 (2016). 
 GPU-Accelerated Sparse Matrix-Matrix Multiplication for
 Linear Scaling Density Functional Theory.
 https://doi.org/10.1002/9781118670712.ch8

 Borstnik, U; VandeVondele, J; Weber, V; Hutter, J. 
 PARALLEL COMPUTING, 40 (5-6), 47-58 (2014). 
 Sparse matrix multiplication: The distributed block-compressed sparse
 row library.
 https://doi.org/10.1016/j.parco.2014.03.012

 Hutter, J; Iannuzzi, M; Schiffmann, F; VandeVondele, J. 
 WIREs Comput Mol Sci., 4 (1), 15-25 (2014). 
 CP2K: atomistic simulations of condensed matter systems.
 https://doi.org/10.1002/wcms.1159

 Marek, A; Blum, V; Johanni, R; Havu, V; Lang, B; Auckenthaler, T;
 Heinecke, A; Bungartz, H; Lederer, H. 
 Journal of Physics: Condensed Matter, 26 (21), (2014). 
 The ELPA library: scalable parallel eigenvalue solutions for
 electronic structure
 theory and computational science.
 https://doi.org/10.1088/0953-8984/26/21/213201

 Guidon, M; Hutter, J; VandeVondele, J. 
 JOURNAL OF CHEMICAL THEORY AND COMPUTATION, 5 (11), 3010-3021 (2009). 
 Robust Periodic Hartree-Fock Exchange for Large-Scale Simulations Using
 Gaussian Basis Sets.
 https://doi.org/10.1021/ct900494g

 Guidon, M; Schiffmann, F; Hutter, J; VandeVondele, J. 
 JOURNAL OF CHEMICAL PHYSICS, 128 (21), 214104 (2008). 
 Ab initio molecular dynamics using hybrid density functionals.
 https://doi.org/10.1063/1.2931945

 Kuhne, TD; Krack, M; Mohamed, FR; Parrinello, M. 
 PHYSICAL REVIEW LETTERS, 98 (6), 066401 (2007). 
 Efficient and accurate Car-Parrinello-like approach to
 Born-Oppenheimer molecular dynamics.
 https://doi.org/10.1103/PhysRevLett.98.066401

 Laino, T; Mohamed, F; Laio, A; Parrinello, M. 
 JOURNAL OF CHEMICAL THEORY AND COMPUTATION, 2 (5), 1370-1378 (2006). 
 An efficient linear-scaling electrostatic coupling for treating
 periodic boundary conditions in QM/MM simulations.
 https://doi.org/10.1021/ct6001169

 Laino, T; Mohamed, F; Laio, A; Parrinello, M. 
 JOURNAL OF CHEMICAL THEORY AND COMPUTATION, 1 (6), 1176-1184 (2005). 
 An efficient real space multigrid QM/MM electrostatic coupling.
 https://doi.org/10.1021/ct050123f

 Krack, M. 
 THEORETICAL CHEMISTRY ACCOUNTS, 114 (1-3), 145-152 (2005). 
 Pseudopotentials for H to Kr optimized for gradient-corrected
 exchange-correlation functionals.
 https://doi.org/10.1007/s00214-005-0655-y

 VandeVondele, J; Krack, M; Mohamed, F; Parrinello, M; Chassaing, T;
 Hutter, J. COMPUTER PHYSICS COMMUNICATIONS, 167 (2), 103-128 (2005). 
 QUICKSTEP: Fast and accurate density functional calculations using a
 mixed Gaussian and plane waves approach.
 https://doi.org/10.1016/j.cpc.2004.12.014

 Frigo, M; Johnson, SG. 
 PROCEEDINGS OF THE IEEE, 93 (2), 216-231 (2005). 
 The design and implementation of FFTW3.
 https://doi.org/10.1109/JPROC.2004.840301

 Kolafa, J. 
 JOURNAL OF COMPUTATIONAL CHEMISTRY, 25 (3), 335-342 (2004). 
 Time-reversible always stable predictor-corrector method for molecular dynamics of polarizable molecules.
 https://doi.org/10.1002/jcc.10385

 VandeVondele, J; Hutter, J. 
 JOURNAL OF CHEMICAL PHYSICS, 118 (10), 4365-4369 (2003). 
 An efficient orbital transformation method for electronic structure
 calculations.
 https://doi.org/10.1063/1.1543154

 Hartwigsen, C; Goedecker, S; Hutter, J. 
 PHYSICAL REVIEW B, 58 (7), 3641-3662 (1998). 
 Relativistic separable dual-space Gaussian pseudopotentials from H to Rn.
 https://doi.org/10.1103/PhysRevB.58.3641

 Lippert, G; Hutter, J; Parrinello, M. 
 MOLECULAR PHYSICS, 92 (3), 477-487 (1997). 
 A hybrid Gaussian and plane wave density functional scheme.
 https://doi.org/10.1080/002689797170220

 Perdew, JP; Burke, K; Ernzerhof, M. 
 PHYSICAL REVIEW LETTERS, 77 (18), 3865-3868 (1996). 
 Generalized gradient approximation made simple.
 https://doi.org/10.1103/PhysRevLett.77.3865

 Goedecker, S; Teter, M; Hutter, J. 
 PHYSICAL REVIEW B, 54 (3), 1703-1710 (1996). 
 Separable dual-space Gaussian pseudopotentials.
 https://doi.org/10.1103/PhysRevB.54.1703

 ESSMANN, U; PERERA, L; BERKOWITZ, ML; DARDEN, T; LEE, H; PEDERSEN, LG. 
 JOURNAL OF CHEMICAL PHYSICS, 103 (19), 8577-8593 (1995). 
 A SMOOTH PARTICLE MESH EWALD METHOD.
 https://doi.org/10.1063/1.470117

 BLOCHL, PE. 
 JOURNAL OF CHEMICAL PHYSICS, 103 (17), 7422-7428 (1995). 
 ELECTROSTATIC DECOUPLING OF PERIODIC IMAGES OF PLANE-WAVE-EXPANDED
 DENSITIES AND DERIVED ATOMIC POINT CHARGES.
 https://doi.org/10.1063/1.470314


 -------------------------------------------------------------------------------
 -                                                                             -
 -                                T I M I N G                                  -
 -                                                                             -
 -------------------------------------------------------------------------------
 SUBROUTINE                       CALLS  ASD         SELF TIME        TOTAL TIME
                                MAXIMUM       AVERAGE  MAXIMUM  AVERAGE  MAXIMUM
 CP2K                                 1  1.0    0.181    0.192  568.652  568.653
 qs_mol_dyn_low                       1  2.0    0.007    0.008  527.252  528.804
 velocity_verlet                      6  3.0    0.019    0.020  440.410  440.567
 qs_forces                            7  3.9    0.001    0.001  335.800  335.800
 rebuild_ks_matrix                   63  8.5    0.000    0.000  304.985  304.994
 qs_ks_build_kohn_sham_matrix        63  9.5    0.011    0.011  304.985  304.994
 hfx_ks_matrix                       63 10.5    0.002    0.002  238.208  238.249
 qs_energies                          7  4.9    0.000    0.000  185.664  185.751
 scf_env_do_scf                       7  5.9    0.000    0.001  180.226  180.227
 qs_ks_update_qs_env                 63  7.8    0.001    0.001  155.086  155.094
 qs_ks_update_qs_env_forces           7  4.9    0.000    0.000  149.908  149.909
 derivatives_four_center              7  8.9    0.029    0.279  136.347  136.347
 derivatives_four_center_main         7  9.9    0.469    0.787  135.865  135.867
 derivatives_four_center_bin        514 10.9  134.797  135.395  134.797  135.395
 scf_env_do_scf_inner_loop           56  6.8    0.001    0.003  114.000  114.011
 integrate_four_center               63 11.5    3.786    4.342  101.844  101.884
 integrate_four_center_main          63 12.5    0.253    0.325   93.726   94.210
 integrate_four_center_bin         4051 13.5   93.473   93.978   93.473   93.978
 qmmm_el_coupling                     7  3.9    0.000    0.000   92.772   92.954
 qmmm_elec_with_gaussian              7  4.9    0.752    0.763   92.762   92.944
 qmmm_forces                          7  3.9    0.018    0.019   86.913   86.915
 qmmm_forces_with_gaussian            7  4.9    0.768    0.780   85.667   85.904
 qmmm_elec_with_gaussian_low          7  5.9    0.000    0.000   71.878   73.283
 init_scf_loop                        7  6.9    0.000    0.000   66.211   66.212
 qmmm_force_with_gaussian_low         7  5.9    0.000    0.000   62.610   62.906
 pw_transfer                       1337 12.0    0.108    0.121   55.925   58.330
 fft_wrap_pw1pw2                   1113 13.1    0.013    0.014   54.933   57.329
 fft_wrap_pw1pw2_200                707 14.4    4.517    4.760   54.041   56.427
 qmmm_forces_gaussian_low_R           7  6.9    0.000    0.000   51.805   52.149
 qmmm_forces_with_gaussian_LG         7  7.9   51.805   52.149   51.805   52.149
 qmmm_elec_gaussian_low_R             7  6.9    0.000    0.000   46.275   47.416
 qmmm_elec_with_gaussian_LG           7  7.9   46.275   47.416   46.275   47.416
 fft3d_ps                          1113 15.1   26.511   27.934   43.951   46.454
 qs_vxc_create                       63 10.5    0.001    0.001   44.148   44.150
 xc_vxc_pw_create                    63 11.5    0.894    0.960   44.147   44.149
 qmmm_env_create                      1  2.0    7.417    7.447   39.618   39.619
 fist_init                            1  3.0    0.000    0.000   29.072   29.072
 qmmm_elec_gaussian_low_G             7  6.9   25.603   26.218   25.603   26.218
 qs_rho_update_rho                   63  7.9    0.000    0.001   25.006   25.009
 calculate_rho_elec                  63  8.9    0.464    0.476   25.006   25.009
 xc_rho_set_and_dset_create          63 12.5    0.281    0.321   22.291   23.623
 pw_integral_ab                    2967  7.5   22.295   22.608   22.602   23.203
 pw_restrict_s3                      21  5.9    2.400    2.454   18.376   18.579
 density_rs2pw                       63  9.9    0.003    0.003   15.947   17.094
 force_field_control                  1  4.0    0.000    0.000   15.289   15.410
 rdparm_amber_8                       2  6.5   12.732   12.856   14.772   14.879
 qmmm_elec_with_gaussian:spline       7  5.9    0.000    0.000   13.824   13.993
 pw_prolongate_s3                    21  6.9    1.792    1.851   13.824   13.993
 topology_control                     1  4.0    0.000    0.000   13.685   13.841
 mp_sum_dm3                          38  5.7   11.449   12.546   11.449   12.546
 mp_alltoall_z22v                  1113 17.1   10.196   12.362   10.196   12.362
 -------------------------------------------------------------------------------

 The number of warnings for this run is : 0
 
 -------------------------------------------------------------------------------
  **** **** ******  **  PROGRAM ENDED AT                 2021-08-31 18:12:23.917
 ***** ** ***  *** **   PROGRAM RAN ON                                 nid001758
 **    ****   ******    PROGRAM RAN BY                                     hjbio
 ***** **    ** ** **   PROGRAM PROCESS ID                                172036
  **** **  *******  **  PROGRAM STOPPED IN /lus/cls01095/work/d118/d118/hjbio/qm
                                           mm-benchmarking/archer2/CPU/cp2kMD/CB
                                           D_PHY-PBE0/6STEPS/1NODES/128CPN/8THRE
                                           ADS
