 DBCSR| CPU Multiplication driver                                           BLAS
 DBCSR| Multrec recursion limit                                              512
 DBCSR| Multiplication stack size                                           1000
 DBCSR| Maximum elements for images                                    UNLIMITED
 DBCSR| Multiplicative factor virtual images                                   1
 DBCSR| Use multiplication densification                                       T
 DBCSR| Multiplication size stacks                                             3
 DBCSR| Use memory pool for CPU allocation                                     F
 DBCSR| Number of 3D layers                                               SINGLE
 DBCSR| Use MPI memory allocation                                              F
 DBCSR| Use RMA algorithm                                                      F
 DBCSR| Use Communication thread                                               T
 DBCSR| Communication thread load                                             60
 DBCSR| MPI: My node id                                                        0
 DBCSR| MPI: Number of nodes                                                  32
 DBCSR| OMP: Current number of threads                                         8
 DBCSR| OMP: Max number of threads                                             8
 DBCSR| Split modifier for TAS multiplication algorithm                  1.0E+00


  **** **** ******  **  PROGRAM STARTED AT               2021-09-01 11:38:08.162
 ***** ** ***  *** **   PROGRAM STARTED ON                             nid001442
 **    ****   ******    PROGRAM STARTED BY                                 hjbio
 ***** **    ** ** **   PROGRAM PROCESS ID                                 25206
  **** **  *******  **  PROGRAM STARTED IN /lus/cls01095/work/d118/d118/hjbio/qm
                                           mm-benchmarking/archer2/CPU/cp2kMD/CB
                                           D_PHY-PBE0/6STEPS/2NODES/128CPN/8THRE
                                           ADS

 CP2K| version string:                                          CP2K version 8.2
 CP2K| source code revision number:                                  git:310b7ab
 CP2K| cp2kflags: omp libint fftw3 libxc elpa parallel mpi3 scalapack plumed2   
 CP2K| is freely available from                            https://www.cp2k.org/
 CP2K| Program compiled at                          Thu 10 Jun 17:43:51 BST 2021
 CP2K| Program compiled on                                                 uan01
 CP2K| Program compiled for                                              ARCHER2
 CP2K| Data directory path              /work/d118/d118/hjbio/CP2K/cp2k-8.2/data
 CP2K| Input file name                                          CBD_PHY-cp2k.inp

 GLOBAL| Force Environment number                                              1
 GLOBAL| Basis set file name                                           HFX_BASIS
 GLOBAL| Potential file name                                           POTENTIAL
 GLOBAL| MM Potential file name                                     MM_POTENTIAL
 GLOBAL| Coordinate file name                                        CBD_PHY.pdb
 GLOBAL| Method name                                                        CP2K
 GLOBAL| Project name                                               CBD_PHY-PBE0
 GLOBAL| Run type                                                             MD
 GLOBAL| FFT library                                                       FFTW3
 GLOBAL| Diagonalization library                                            ELPA
 GLOBAL| Minimum number of eigenvectors for ELPA usage                        16
 GLOBAL| Orthonormality check for eigenvectors                          DISABLED
 GLOBAL| Matrix multiplication library                                    SCALAP
 GLOBAL| All-to-all communication in single precision                          F
 GLOBAL| FFTs using library dependent lengths                                  F
 GLOBAL| Grid backend                                                       AUTO
 GLOBAL| Global print level                                                  LOW
 GLOBAL| MPI I/O enabled                                                       T
 GLOBAL| Total number of message passing processes                            32
 GLOBAL| Number of threads for this process                                    8
 GLOBAL| This output is from process                                           0
 GLOBAL| CPU model name                          AMD EPYC 7742 64-Core Processor
 GLOBAL| CPUID                                                              1002

 MEMORY| system memory details [Kb]
 MEMORY|                        rank 0           min           max       average
 MEMORY| MemTotal            263568576     263568576     263568576     263568576
 MEMORY| MemFree             252527760     252527760     252677928     252602844
 MEMORY| Buffers                300260        299600        300260        299930
 MEMORY| Cached                2065164       1929132       2065164       1997148
 MEMORY| Slab                  1445320       1424800       1445320       1435060
 MEMORY| SReclaimable           197944        196188        197944        197066
 MEMORY| MemLikelyFree       255091128     255091128     255102848     255096988



                      ************* ******** ***********   
                     ************* **********************  
                     ****     **** ****      ***********   
                     ******** ****  *******     ****       
                     *******  ****   *******   ****        
                     ****     ****       ****  ****        
                     ****     **** **********  ****        
                      ****     **** ********    ****       
                     FRONTIERS IN SIMULATION TECHNOLOGY    
                                                           
                        C.J. Mundy, S. Balasubramanian,    
                     Ken Bagchi, J. Hutter, Ari Seitsonen  
                      IFW Kuo, T. Laino, J. VandeVondele   
                                 Version 1.0               

                                                           


 EWALD| Summation is done by:                                               SPME
 EWALD| Alpha parameter [       ANGSTROM^-1]                              0.4000
 EWALD| Real Space Cutoff [          ANGSTROM]                            8.4348
 EWALD| G-space max. Miller index                         80        80        80
 EWALD| Spline interpolation order                                             6

 FORCEFIELD| WARNING: A non Critical ForceField parameter is missing! CP2K GOES!
 FORCEFIELD| Non critical parameters are:Urey-Bradley,Torsions,Impropers, Opbends and 1-4
 FORCEFIELD| All missing parameters will not contribute to the potential energy!
 FORCEFIELD| Activate the print key FF_INFO to have a list of missing parameters

 CHARGE_INFO| Total Charge of the Classical System:                    -0.825808

 SPLINE_INFO| Generating 101926 splines for NONBONDED14 interactions 
              Due to 451 different atomic kinds
  ...10192  ...20384  ...30576  ...40768  ...50960  ...61152  ...71344  ...81536  ...91728  ...101920
 SPLINE_INFO| Number of unique splines computed:            301
 SPLINE_INFO| Done

 SPLINE_INFO| Generating 101926 splines for NONBONDED interactions 
              Due to 451 different atomic kinds
  ...10192  ...20384  ...30576  ...40768  ...50960  ...61152  ...71344  ...81536  ...91728  ...101920
 SPLINE_INFO| Number of unique splines computed:            301
 SPLINE_INFO| Done

 *******************************************************************************
 *******************************************************************************
 **                                                                           **
 **     #####                         ##              ##                      **
 **    ##   ##            ##          ##              ##                      **
 **   ##     ##                       ##            ######                    **
 **   ##     ##  ##   ##  ##   #####  ##  ##   ####   ##    #####    #####    **
 **   ##     ##  ##   ##  ##  ##      ## ##   ##      ##   ##   ##  ##   ##   **
 **   ##  ## ##  ##   ##  ##  ##      ####     ###    ##   ######   ######    **
 **    ##  ###   ##   ##  ##  ##      ## ##      ##   ##   ##       ##        **
 **     #######   #####   ##   #####  ##  ##  ####    ##    #####   ##        **
 **           ##                                                    ##        **
 **                                                                           **
 **                                                ... make the atoms dance   **
 **                                                                           **
 **            Copyright (C) by CP2K developers group (2000-2021)             **
 **                      J. Chem. Phys. 152, 194103 (2020)                    **
 **                                                                           **
 *******************************************************************************


 TOTAL NUMBERS AND MAXIMUM NUMBERS

  Total number of            - Atomic kinds:                                   5
                             - Atoms:                                         68
                             - Shell sets:                                   340
                             - Shells:                                       445
                             - Primitive Cartesian functions:                476
                             - Cartesian basis functions:                   1137
                             - Spherical basis functions:                   1067

  Maximum angular momentum of- Orbital basis functions:                        2
                             - Local part of the GTH pseudopotential:          2
                             - Non-local part of the GTH pseudopotential:      0


 SCF PARAMETERS         Density guess:                                   RESTART
                        --------------------------------------------------------
                        max_scf:                                              30
                        max_scf_history:                                       0
                        max_diis:                                              4
                        --------------------------------------------------------
                        eps_scf:                                        1.00E-06
                        eps_scf_history:                                0.00E+00
                        eps_diis:                                       1.00E-01
                        eps_eigval:                                     1.00E-05
                        --------------------------------------------------------
                        level_shift [a.u.]:                                 0.00
                        --------------------------------------------------------
                        Outer loop SCF in use 
                        No variables optimised in outer loop
                        eps_scf                                         1.00E-06
                        max_scf                                               20
                        No outer loop optimization
                        step_size                                       5.00E-01

 *******************************************************************************
 *******************************************************************************
 **                                                                           **
 **             #######  ##     ## ##     ## ##     ##                        **
 **            ##     ## ###   ### ###   ### ###   ###                        **
 **            ##     ## #### #### #### #### #### ####                        **
 **            ##     ## ## ### ## ## ### ## ## ### ##                        **
 **            ##  ## ## ##     ## ##     ## ##     ##                        **
 **            ##    ##  ##     ## ##     ## ##     ##  T.Laino and F.Mohamed **
 **             ##### ## ##     ## ##     ## ##     ##  2005 - 2015           **
 **                                                                           **
 **                                                     Calculation Started.. **
 *******************************************************************************
 *******************************************************************************

 MD_PAR| Molecular dynamics protocol (MD input parameters)
 MD_PAR| Ensemble type                                                       NVE
 MD_PAR| Number of time steps                                                  6
 MD_PAR| Time step [fs]                                                 1.000000
 MD_PAR| Temperature [K]                                              300.000000
 MD_PAR| Temperature tolerance [K]                                      0.000000
 MD_PAR| Print MD information every                                    1 step(s)
 MD_PAR| File type   Print frequency [steps]                          File names
 MD_PAR| Coordinates          1                           CBD_PHY-PBE0-pos-1.xyz
 MD_PAR| Velocities           1                           CBD_PHY-PBE0-vel-1.xyz
 MD_PAR| Energies             1                              CBD_PHY-PBE0-1.ener
 MD_PAR| Dump                20                           CBD_PHY-PBE0-1.restart

 ROT| Rotational analysis information
 ROT| Principal axes and moments of inertia [a.u.]
 ROT|                           1                   2                   3
 ROT| Eigenvalues      1.56283164001E+13   1.56407408488E+13   1.56663418804E+13
 ROT|      x              0.901637047331     -0.018153263569      0.432112362589
 ROT|      y              0.323714777231      0.690893927917     -0.646431994388
 ROT|      z             -0.286808957117      0.722728191915      0.628812040859
 ROT| Number of rotovibrational vectors                                        6

 DOF| Calculation of degrees of freedom
 DOF| Number of atoms                                                     167923
 DOF| Number of intramolecular constraints                                     0
 DOF| Number of intermolecular constraints                                     0
 DOF| Invariants (translations + rotations)                                    3
 DOF| Degrees of freedom                                                  503766

 DOF| Restraints information
 DOF| Number of intramolecular restraints                                      0
 DOF| Number of intermolecular restraints                                      0

 MD_VEL| Velocities initialization
 MD_VEL| Initial temperature [K]                                      300.000000
 MD_VEL| COM velocity            -0.0000000000     0.0000000000     0.0000000000

  Translating the system in order to center the QM fragment in the QM box.

 Number of electrons:                                                        180
 Number of occupied orbitals:                                                 90
 Number of molecular orbitals:                                                90

 Number of orbital functions:                                               1067
 Number of independent orbital functions:                                   1067

 Extrapolation method: initial_guess


 SCF WAVEFUNCTION OPTIMIZATION

  ----------------------------------- OT ---------------------------------------
  Minimizer      : DIIS                : direct inversion
                                         in the iterative subspace
                                         using   7 DIIS vectors
                                         safer DIIS on
  Preconditioner : FULL_ALL            : diagonalization, state selective
  Precond_solver : DEFAULT
  stepsize       :    0.15000000                  energy_gap     :    0.08000000
  eps_taylor     :   0.10000E-15                  max_taylor     :             4
  ----------------------------------- OT ---------------------------------------

  Step     Update method      Time    Convergence         Total energy    Change
  ------------------------------------------------------------------------------
  Decoupling Energy:                                               0.0370647021
  Recoupling Energy:                                              -0.0063741479
     1 OT DIIS     0.15E+00    8.0     0.00129057      -255.9257316521 -2.56E+02
  Decoupling Energy:                                               0.0370576004
  Recoupling Energy:                                              -0.0063740314
     2 OT DIIS     0.15E+00    1.2     0.00057761      -255.9419521977 -1.62E-02
  Decoupling Energy:                                               0.0369596417
  Recoupling Energy:                                              -0.0063730135
     3 OT DIIS     0.15E+00    1.2     0.00038348      -255.9451217318 -3.17E-03
  Decoupling Energy:                                               0.0369795470
  Recoupling Energy:                                              -0.0063732416
     4 OT DIIS     0.15E+00    1.2     0.00009866      -255.9458275768 -7.06E-04
  Decoupling Energy:                                               0.0369716948
  Recoupling Energy:                                              -0.0063731487
     5 OT DIIS     0.15E+00    1.1     0.00003992      -255.9458779686 -5.04E-05
  Decoupling Energy:                                               0.0369737640
  Recoupling Energy:                                              -0.0063731649
     6 OT DIIS     0.15E+00    1.1     0.00001793      -255.9458894170 -1.14E-05
  Decoupling Energy:                                               0.0369741808
  Recoupling Energy:                                              -0.0063731680
     7 OT DIIS     0.15E+00    1.1     0.00000621      -255.9458922938 -2.88E-06
  Decoupling Energy:                                               0.0369727127
  Recoupling Energy:                                              -0.0063731518
     8 OT DIIS     0.15E+00    1.1     0.00000242      -255.9458926328 -3.39E-07
  Decoupling Energy:                                               0.0369731061
  Recoupling Energy:                                              -0.0063731556
     9 OT DIIS     0.15E+00    1.1     0.00000111      -255.9458926822 -4.94E-08
  Decoupling Energy:                                               0.0369728228
  Recoupling Energy:                                              -0.0063731526
    10 OT DIIS     0.15E+00    1.2     0.00000048      -255.9458926924 -1.02E-08

  *** SCF run converged in    10 steps ***


  Electronic density on regular grids:       -179.9999999999        0.0000000001
  Core density on regular grids:              180.9999999999       -0.0000000001
  Total charge density on r-space grids:        1.0000000000
  Total charge density g-space grids:           1.0000000000

  Overlap energy of the core charge distribution:               0.00001951532734
  Self energy of the core charge distribution:               -615.71576003586028
  Core Hamiltonian energy:                                    191.01363220817734
  Hartree energy:                                             248.20663869015658
  Exchange-correlation energy:                                -61.38430761263355
  Hartree-Fock Exchange energy:                               -18.10821018492839
  QM/MM Electrostatic energy:                                   0.04209472735425

  Total energy:                                              -255.94589269240669

  outer SCF iter =    1 RMS gradient =   0.48E-06 energy =       -255.9458926924
  outer SCF loop converged in   1 iterations or   10 steps

  Decoupling Energy:                                               0.0369728028
  Recoupling Energy:                                              -0.0063731523

 ENERGY| Total FORCE_EVAL ( QMMM ) energy [a.u.]:          -1088.110859624540808

 MD_INI| MD initialization
 MD_INI| Potential energy [hartree]                          -0.108811085962E+04
 MD_INI| Total kinetic energy [hartree]                       0.239300084734E+03
 MD_INI| QM kinetic energy [hartree]                          0.106639360339E+00
 MD_INI| Total temperature [K]                                        300.000000
 MD_INI| QM temperature [K]                                           330.137318
 MD_INI| Cell volume [bohr^3]                                 1.137316355424E+07
 MD_INI| Cell volume [ang^3]                                  1.685328937712E+06
 MD_INI| Cell lengths [bohr]      2.24884969E+02  2.24884969E+02  2.24884969E+02
 MD_INI| Cell lengths [ang]       1.19004000E+02  1.19004000E+02  1.19004000E+02
 MD_INI| Cell angles [deg]        9.00000000E+01  9.00000000E+01  9.00000000E+01

  Translating the system in order to center the QM fragment in the QM box.

 Number of electrons:                                                        180
 Number of occupied orbitals:                                                 90
 Number of molecular orbitals:                                                90

 Number of orbital functions:                                               1067
 Number of independent orbital functions:                                   1067

 Extrapolation method: ASPC


 SCF WAVEFUNCTION OPTIMIZATION

  ----------------------------------- OT ---------------------------------------
  Minimizer      : DIIS                : direct inversion
                                         in the iterative subspace
                                         using   7 DIIS vectors
                                         safer DIIS on
  Preconditioner : FULL_ALL            : diagonalization, state selective
  Precond_solver : DEFAULT
  stepsize       :    0.15000000                  energy_gap     :    0.08000000
  eps_taylor     :   0.10000E-15                  max_taylor     :             4
  ----------------------------------- OT ---------------------------------------

  Step     Update method      Time    Convergence         Total energy    Change
  ------------------------------------------------------------------------------
  Decoupling Energy:                                               0.0370014667
  Recoupling Energy:                                              -0.0063734172
     1 OT DIIS     0.15E+00    4.7     0.00075899      -255.7182133749 -2.56E+02
  Decoupling Energy:                                               0.0370082386
  Recoupling Energy:                                              -0.0063735355
     2 OT DIIS     0.15E+00    1.2     0.00032685      -255.7237312535 -5.52E-03
  Decoupling Energy:                                               0.0370087411
  Recoupling Energy:                                              -0.0063735590
     3 OT DIIS     0.15E+00    1.1     0.00019068      -255.7247685842 -1.04E-03
  Decoupling Energy:                                               0.0370199882
  Recoupling Energy:                                              -0.0063736817
     4 OT DIIS     0.15E+00    1.1     0.00006054      -255.7249610213 -1.92E-04
  Decoupling Energy:                                               0.0370216763
  Recoupling Energy:                                              -0.0063737045
     5 OT DIIS     0.15E+00    1.2     0.00001954      -255.7249775860 -1.66E-05
  Decoupling Energy:                                               0.0370210005
  Recoupling Energy:                                              -0.0063736984
     6 OT DIIS     0.15E+00    1.2     0.00000817      -255.7249798444 -2.26E-06
  Decoupling Energy:                                               0.0370221929
  Recoupling Energy:                                              -0.0063737124
     7 OT DIIS     0.15E+00    1.1     0.00000308      -255.7249803064 -4.62E-07
  Decoupling Energy:                                               0.0370222382
  Recoupling Energy:                                              -0.0063737132
     8 OT DIIS     0.15E+00    1.1     0.00000136      -255.7249803837 -7.72E-08
  Decoupling Energy:                                               0.0370224658
  Recoupling Energy:                                              -0.0063737159
     9 OT DIIS     0.15E+00    1.1     0.00000058      -255.7249803994 -1.57E-08

  *** SCF run converged in     9 steps ***


  Electronic density on regular grids:       -180.0000000000        0.0000000000
  Core density on regular grids:              180.9999999999       -0.0000000001
  Total charge density on r-space grids:        0.9999999999
  Total charge density g-space grids:           0.9999999999

  Overlap energy of the core charge distribution:               0.00002422739645
  Self energy of the core charge distribution:               -615.71576003586028
  Core Hamiltonian energy:                                    191.21094991362901
  Hartree energy:                                             248.07774815351229
  Exchange-correlation energy:                                -61.42683491795111
  Hartree-Fock Exchange energy:                               -18.12283147912371
  QM/MM Electrostatic energy:                                   0.25172373900530

  Total energy:                                              -255.72498039939202

  outer SCF iter =    1 RMS gradient =   0.58E-06 energy =       -255.7249803994
  outer SCF loop converged in   1 iterations or    9 steps

  Decoupling Energy:                                               0.0370224944
  Recoupling Energy:                                              -0.0063737164

 ENERGY| Total FORCE_EVAL ( QMMM ) energy [a.u.]:          -1059.962356569042640

 MD| ***************************************************************************
 MD| Step number                                                               1
 MD| Time [fs]                                                          1.000000
 MD| Conserved quantity [hartree]                            -0.841461427201E+03
 MD| ---------------------------------------------------------------------------
 MD|                                          Instantaneous             Averages
 MD| CPU time per MD step [s]                     89.442881            89.442881
 MD| Energy drift per atom [K]           0.138202490372E+02   0.000000000000E+00
 MD| Potential energy [hartree]         -0.105996235657E+04  -0.105996235657E+04
 MD| Total kinetic energy [hartree]      0.218500929368E+03   0.218500929368E+03
 MD| QM kinetic energy [hartree]         0.121347243363E+00   0.121347243363E+00
 MD| Total temperature [K]                       273.925013           273.925013
 MD| QM temperature [K]                          375.670422           375.670422
 MD| ***************************************************************************

  Translating the system in order to center the QM fragment in the QM box.

 Number of electrons:                                                        180
 Number of occupied orbitals:                                                 90
 Number of molecular orbitals:                                                90

 Number of orbital functions:                                               1067
 Number of independent orbital functions:                                   1067

 Extrapolation method: ASPC


 SCF WAVEFUNCTION OPTIMIZATION

  ----------------------------------- OT ---------------------------------------
  Minimizer      : DIIS                : direct inversion
                                         in the iterative subspace
                                         using   7 DIIS vectors
                                         safer DIIS on
  Preconditioner : FULL_ALL            : diagonalization, state selective
  Precond_solver : DEFAULT
  stepsize       :    0.15000000                  energy_gap     :    0.08000000
  eps_taylor     :   0.10000E-15                  max_taylor     :             4
  ----------------------------------- OT ---------------------------------------

  Step     Update method      Time    Convergence         Total energy    Change
  ------------------------------------------------------------------------------
  Decoupling Energy:                                               0.0370781906
  Recoupling Energy:                                              -0.0063743357
     1 OT DIIS     0.15E+00    4.5     0.00029255      -255.3622521762 -2.55E+02
  Decoupling Energy:                                               0.0370714473
  Recoupling Energy:                                              -0.0063742686
     2 OT DIIS     0.15E+00    1.1     0.00012379      -255.3630879680 -8.36E-04
  Decoupling Energy:                                               0.0370747206
  Recoupling Energy:                                              -0.0063743003
     3 OT DIIS     0.15E+00    1.1     0.00005679      -255.3632552924 -1.67E-04
  Decoupling Energy:                                               0.0370720773
  Recoupling Energy:                                              -0.0063742776
     4 OT DIIS     0.15E+00    1.1     0.00001757      -255.3632740839 -1.88E-05
  Decoupling Energy:                                               0.0370725485
  Recoupling Energy:                                              -0.0063742816
     5 OT DIIS     0.15E+00    1.1     0.00000682      -255.3632756108 -1.53E-06
  Decoupling Energy:                                               0.0370729654
  Recoupling Energy:                                              -0.0063742867
     6 OT DIIS     0.15E+00    1.2     0.00000313      -255.3632758685 -2.58E-07
  Decoupling Energy:                                               0.0370729502
  Recoupling Energy:                                              -0.0063742866
     7 OT DIIS     0.15E+00    1.1     0.00000105      -255.3632759295 -6.10E-08
  Decoupling Energy:                                               0.0370730081
  Recoupling Energy:                                              -0.0063742873
     8 OT DIIS     0.15E+00    1.1     0.00000048      -255.3632759396 -1.02E-08

  *** SCF run converged in     8 steps ***


  Electronic density on regular grids:       -180.0000000000       -0.0000000000
  Core density on regular grids:              180.9999999999       -0.0000000001
  Total charge density on r-space grids:        0.9999999998
  Total charge density g-space grids:           0.9999999998

  Overlap energy of the core charge distribution:               0.00005088936567
  Self energy of the core charge distribution:               -615.71576003586028
  Core Hamiltonian energy:                                    191.44418581091449
  Hartree energy:                                             247.94136726095272
  Exchange-correlation energy:                                -61.47332469409150
  Hartree-Fock Exchange energy:                               -18.13880648380220
  QM/MM Electrostatic energy:                                   0.57901131287397

  Total energy:                                              -255.36327593964714

  outer SCF iter =    1 RMS gradient =   0.48E-06 energy =       -255.3632759396
  outer SCF loop converged in   1 iterations or    8 steps

  Decoupling Energy:                                               0.0370730248
  Recoupling Energy:                                              -0.0063742875

 ENERGY| Total FORCE_EVAL ( QMMM ) energy [a.u.]:          -1061.235329315660238

 MD| ***************************************************************************
 MD| Step number                                                               2
 MD| Time [fs]                                                          2.000000
 MD| Conserved quantity [hartree]                            -0.842817774868E+03
 MD| ---------------------------------------------------------------------------
 MD|                                          Instantaneous             Averages
 MD| CPU time per MD step [s]                     40.267898            64.855390
 MD| Energy drift per atom [K]           0.112696740286E+02   0.563483701432E+01
 MD| Potential energy [hartree]         -0.106123532932E+04  -0.106059884294E+04
 MD| Total kinetic energy [hartree]      0.218417554447E+03   0.218459241908E+03
 MD| QM kinetic energy [hartree]         0.111577922984E+00   0.116462583174E+00
 MD| Total temperature [K]                       273.820489           273.872751
 MD| QM temperature [K]                          345.426268           360.548345
 MD| ***************************************************************************

  Translating the system in order to center the QM fragment in the QM box.

 Number of electrons:                                                        180
 Number of occupied orbitals:                                                 90
 Number of molecular orbitals:                                                90

 Number of orbital functions:                                               1067
 Number of independent orbital functions:                                   1067

 Extrapolation method: ASPC


 SCF WAVEFUNCTION OPTIMIZATION

  ----------------------------------- OT ---------------------------------------
  Minimizer      : DIIS                : direct inversion
                                         in the iterative subspace
                                         using   7 DIIS vectors
                                         safer DIIS on
  Preconditioner : FULL_ALL            : diagonalization, state selective
  Precond_solver : DEFAULT
  stepsize       :    0.15000000                  energy_gap     :    0.08000000
  eps_taylor     :   0.10000E-15                  max_taylor     :             4
  ----------------------------------- OT ---------------------------------------

  Step     Update method      Time    Convergence         Total energy    Change
  ------------------------------------------------------------------------------
  Decoupling Energy:                                               0.0371231687
  Recoupling Energy:                                              -0.0063748342
     1 OT DIIS     0.15E+00    4.5     0.00057313      -254.8840261280 -2.55E+02
  Decoupling Energy:                                               0.0371263972
  Recoupling Energy:                                              -0.0063748789
     2 OT DIIS     0.15E+00    1.1     0.00022567      -254.8871520445 -3.13E-03
  Decoupling Energy:                                               0.0371270805
  Recoupling Energy:                                              -0.0063748845
     3 OT DIIS     0.15E+00    1.1     0.00008227      -254.8877074134 -5.55E-04
  Decoupling Energy:                                               0.0371223329
  Recoupling Energy:                                              -0.0063748373
     4 OT DIIS     0.15E+00    1.1     0.00002751      -254.8877576445 -5.02E-05
  Decoupling Energy:                                               0.0371233199
  Recoupling Energy:                                              -0.0063748479
     5 OT DIIS     0.15E+00    1.1     0.00001037      -254.8877614438 -3.80E-06
  Decoupling Energy:                                               0.0371231630
  Recoupling Energy:                                              -0.0063748451
     6 OT DIIS     0.15E+00    1.1     0.00000440      -254.8877620295 -5.86E-07
  Decoupling Energy:                                               0.0371230840
  Recoupling Energy:                                              -0.0063748446
     7 OT DIIS     0.15E+00    1.1     0.00000136      -254.8877621199 -9.04E-08
  Decoupling Energy:                                               0.0371230867
  Recoupling Energy:                                              -0.0063748447
     8 OT DIIS     0.15E+00    1.1     0.00000059      -254.8877621307 -1.08E-08

  *** SCF run converged in     8 steps ***


  Electronic density on regular grids:       -180.0000000003       -0.0000000003
  Core density on regular grids:              180.9999999999       -0.0000000001
  Total charge density on r-space grids:        0.9999999996
  Total charge density g-space grids:           0.9999999996

  Overlap energy of the core charge distribution:               0.00005124545116
  Self energy of the core charge distribution:               -615.71576003586028
  Core Hamiltonian energy:                                    191.49125938606130
  Hartree energy:                                             247.90728036558946
  Exchange-correlation energy:                                -61.48094685475101
  Hartree-Fock Exchange energy:                               -18.14140207204425
  QM/MM Electrostatic energy:                                   1.05175583484201

  Total energy:                                              -254.88776213071168

  outer SCF iter =    1 RMS gradient =   0.59E-06 energy =       -254.8877621307
  outer SCF loop converged in   1 iterations or    8 steps

  Decoupling Energy:                                               0.0371230864
  Recoupling Energy:                                              -0.0063748446

 ENERGY| Total FORCE_EVAL ( QMMM ) energy [a.u.]:          -1082.045340470364408

 MD| ***************************************************************************
 MD| Step number                                                               3
 MD| Time [fs]                                                          3.000000
 MD| Conserved quantity [hartree]                            -0.846392350572E+03
 MD| ---------------------------------------------------------------------------
 MD|                                          Instantaneous             Averages
 MD| CPU time per MD step [s]                     41.009986            56.906922
 MD| Energy drift per atom [K]           0.454778135055E+01   0.527248512640E+01
 MD| Potential energy [hartree]         -0.108204534047E+04  -0.106774767545E+04
 MD| Total kinetic energy [hartree]      0.235652989898E+03   0.224190491238E+03
 MD| QM kinetic energy [hartree]         0.117355694750E+00   0.116760287033E+00
 MD| Total temperature [K]                       295.427797           281.057767
 MD| QM temperature [K]                          363.313267           361.469986
 MD| ***************************************************************************

  Translating the system in order to center the QM fragment in the QM box.

 Number of electrons:                                                        180
 Number of occupied orbitals:                                                 90
 Number of molecular orbitals:                                                90

 Number of orbital functions:                                               1067
 Number of independent orbital functions:                                   1067

 Extrapolation method: ASPC


 SCF WAVEFUNCTION OPTIMIZATION

  ----------------------------------- OT ---------------------------------------
  Minimizer      : DIIS                : direct inversion
                                         in the iterative subspace
                                         using   7 DIIS vectors
                                         safer DIIS on
  Preconditioner : FULL_ALL            : diagonalization, state selective
  Precond_solver : DEFAULT
  stepsize       :    0.15000000                  energy_gap     :    0.08000000
  eps_taylor     :   0.10000E-15                  max_taylor     :             4
  ----------------------------------- OT ---------------------------------------

  Step     Update method      Time    Convergence         Total energy    Change
  ------------------------------------------------------------------------------
  Decoupling Energy:                                               0.0371654185
  Recoupling Energy:                                              -0.0063753278
     1 OT DIIS     0.15E+00    4.5     0.00026657      -254.3373029313 -2.54E+02
  Decoupling Energy:                                               0.0371742170
  Recoupling Energy:                                              -0.0063754095
     2 OT DIIS     0.15E+00    1.1     0.00010693      -254.3379933102 -6.90E-04
  Decoupling Energy:                                               0.0371691660
  Recoupling Energy:                                              -0.0063753575
     3 OT DIIS     0.15E+00    1.1     0.00004019      -254.3381214142 -1.28E-04
  Decoupling Energy:                                               0.0371714543
  Recoupling Energy:                                              -0.0063753810
     4 OT DIIS     0.15E+00    1.2     0.00001280      -254.3381313337 -9.92E-06
  Decoupling Energy:                                               0.0371702855
  Recoupling Energy:                                              -0.0063753696
     5 OT DIIS     0.15E+00    1.1     0.00000542      -254.3381321835 -8.50E-07
  Decoupling Energy:                                               0.0371705251
  Recoupling Energy:                                              -0.0063753714
     6 OT DIIS     0.15E+00    1.2     0.00000188      -254.3381323228 -1.39E-07
  Decoupling Energy:                                               0.0371705469
  Recoupling Energy:                                              -0.0063753718
     7 OT DIIS     0.15E+00    1.1     0.00000064      -254.3381323415 -1.87E-08

  *** SCF run converged in     7 steps ***


  Electronic density on regular grids:       -179.9999999999        0.0000000001
  Core density on regular grids:              180.9999999999       -0.0000000001
  Total charge density on r-space grids:        1.0000000000
  Total charge density g-space grids:           1.0000000000

  Overlap energy of the core charge distribution:               0.00002358470594
  Self energy of the core charge distribution:               -615.71576003586028
  Core Hamiltonian energy:                                    191.34733528133336
  Hartree energy:                                             247.97609086781168
  Exchange-correlation energy:                                -61.44937273446347
  Hartree-Fock Exchange energy:                               -18.13042018536532
  QM/MM Electrostatic energy:                                   1.63397088035297

  Total energy:                                              -254.33813234148519

  outer SCF iter =    1 RMS gradient =   0.64E-06 energy =       -254.3381323415
  outer SCF loop converged in   1 iterations or    7 steps

  Decoupling Energy:                                               0.0371704765
  Recoupling Energy:                                              -0.0063753711

 ENERGY| Total FORCE_EVAL ( QMMM ) energy [a.u.]:          -1079.714054099977375

 MD| ***************************************************************************
 MD| Step number                                                               4
 MD| Time [fs]                                                          4.000000
 MD| Conserved quantity [hartree]                            -0.842113597305E+03
 MD| ---------------------------------------------------------------------------
 MD|                                          Instantaneous             Averages
 MD| CPU time per MD step [s]                     39.240898            52.490416
 MD| Energy drift per atom [K]           0.125938608418E+02   0.710282905526E+01
 MD| Potential energy [hartree]         -0.107971405410E+04  -0.107073927011E+04
 MD| Total kinetic energy [hartree]      0.237600456795E+03   0.227542982627E+03
 MD| QM kinetic energy [hartree]         0.148328692928E+00   0.124652388506E+00
 MD| Total temperature [K]                       297.869251           285.260638
 MD| QM temperature [K]                          459.200400           385.902589
 MD| ***************************************************************************

  Translating the system in order to center the QM fragment in the QM box.

 Number of electrons:                                                        180
 Number of occupied orbitals:                                                 90
 Number of molecular orbitals:                                                90

 Number of orbital functions:                                               1067
 Number of independent orbital functions:                                   1067

 Extrapolation method: ASPC


 SCF WAVEFUNCTION OPTIMIZATION

  ----------------------------------- OT ---------------------------------------
  Minimizer      : DIIS                : direct inversion
                                         in the iterative subspace
                                         using   7 DIIS vectors
                                         safer DIIS on
  Preconditioner : FULL_ALL            : diagonalization, state selective
  Precond_solver : DEFAULT
  stepsize       :    0.15000000                  energy_gap     :    0.08000000
  eps_taylor     :   0.10000E-15                  max_taylor     :             4
  ----------------------------------- OT ---------------------------------------

  Step     Update method      Time    Convergence         Total energy    Change
  ------------------------------------------------------------------------------
  Decoupling Energy:                                               0.0372102021
  Recoupling Energy:                                              -0.0063758446
     1 OT DIIS     0.15E+00    4.5     0.00032172      -253.7449283234 -2.54E+02
  Decoupling Energy:                                               0.0372073885
  Recoupling Energy:                                              -0.0063758040
     2 OT DIIS     0.15E+00    1.2     0.00013174      -253.7458485618 -9.20E-04
  Decoupling Energy:                                               0.0372092626
  Recoupling Energy:                                              -0.0063758202
     3 OT DIIS     0.15E+00    1.1     0.00006228      -253.7460078537 -1.59E-04
  Decoupling Energy:                                               0.0372089062
  Recoupling Energy:                                              -0.0063758166
     4 OT DIIS     0.15E+00    1.1     0.00002421      -253.7460389250 -3.11E-05
  Decoupling Energy:                                               0.0372096158
  Recoupling Energy:                                              -0.0063758219
     5 OT DIIS     0.15E+00    1.1     0.00000522      -253.7460414301 -2.51E-06
  Decoupling Energy:                                               0.0372093046
  Recoupling Energy:                                              -0.0063758193
     6 OT DIIS     0.15E+00    1.1     0.00000249      -253.7460415731 -1.43E-07
  Decoupling Energy:                                               0.0372093130
  Recoupling Energy:                                              -0.0063758192
     7 OT DIIS     0.15E+00    1.1     0.00000089      -253.7460416047 -3.16E-08

  *** SCF run converged in     7 steps ***


  Electronic density on regular grids:       -180.0000000000       -0.0000000000
  Core density on regular grids:              180.9999999999       -0.0000000001
  Total charge density on r-space grids:        0.9999999998
  Total charge density g-space grids:           0.9999999998

  Overlap energy of the core charge distribution:               0.00001841800086
  Self energy of the core charge distribution:               -615.71576003586028
  Core Hamiltonian energy:                                    191.22476018374726
  Hartree energy:                                             248.04793892849722
  Exchange-correlation energy:                                -61.41799407393678
  Hartree-Fock Exchange energy:                               -18.11952398327709
  QM/MM Electrostatic energy:                                   2.23451895811435

  Total energy:                                              -253.74604160471441

  outer SCF iter =    1 RMS gradient =   0.89E-06 energy =       -253.7460416047
  outer SCF loop converged in   1 iterations or    7 steps

  Decoupling Energy:                                               0.0372093351
  Recoupling Energy:                                              -0.0063758194

 ENERGY| Total FORCE_EVAL ( QMMM ) energy [a.u.]:          -1094.307011368365920

 MD| ***************************************************************************
 MD| Step number                                                               5
 MD| Time [fs]                                                          5.000000
 MD| Conserved quantity [hartree]                            -0.848389415552E+03
 MD| ---------------------------------------------------------------------------
 MD|                                          Instantaneous             Averages
 MD| CPU time per MD step [s]                     40.133661            50.019065
 MD| Energy drift per atom [K]           0.792354811031E+00   0.584073420641E+01
 MD| Potential energy [hartree]         -0.109430701137E+04  -0.107545281836E+04
 MD| Total kinetic energy [hartree]      0.245917595817E+03   0.231217905265E+03
 MD| QM kinetic energy [hartree]         0.157565619194E+00   0.131235034644E+00
 MD| Total temperature [K]                       308.296083           289.867727
 MD| QM temperature [K]                          487.796352           406.281342
 MD| ***************************************************************************

  Translating the system in order to center the QM fragment in the QM box.

 Number of electrons:                                                        180
 Number of occupied orbitals:                                                 90
 Number of molecular orbitals:                                                90

 Number of orbital functions:                                               1067
 Number of independent orbital functions:                                   1067

 Extrapolation method: ASPC


 SCF WAVEFUNCTION OPTIMIZATION

  ----------------------------------- OT ---------------------------------------
  Minimizer      : DIIS                : direct inversion
                                         in the iterative subspace
                                         using   7 DIIS vectors
                                         safer DIIS on
  Preconditioner : FULL_ALL            : diagonalization, state selective
  Precond_solver : DEFAULT
  stepsize       :    0.15000000                  energy_gap     :    0.08000000
  eps_taylor     :   0.10000E-15                  max_taylor     :             4
  ----------------------------------- OT ---------------------------------------

  Step     Update method      Time    Convergence         Total energy    Change
  ------------------------------------------------------------------------------
  Decoupling Energy:                                               0.0372441565
  Recoupling Energy:                                              -0.0063762191
     1 OT DIIS     0.15E+00    4.5     0.00048943      -253.1925182848 -2.53E+02
  Decoupling Energy:                                               0.0372416676
  Recoupling Energy:                                              -0.0063762236
     2 OT DIIS     0.15E+00    1.2     0.00019211      -253.1946653584 -2.15E-03
  Decoupling Energy:                                               0.0372399089
  Recoupling Energy:                                              -0.0063761976
     3 OT DIIS     0.15E+00    1.1     0.00008085      -253.1950222366 -3.57E-04
  Decoupling Energy:                                               0.0372396713
  Recoupling Energy:                                              -0.0063761966
     4 OT DIIS     0.15E+00    1.1     0.00002283      -253.1950811192 -5.89E-05
  Decoupling Energy:                                               0.0372388677
  Recoupling Energy:                                              -0.0063761878
     5 OT DIIS     0.15E+00    1.1     0.00000847      -253.1950837435 -2.62E-06
  Decoupling Energy:                                               0.0372394703
  Recoupling Energy:                                              -0.0063761927
     6 OT DIIS     0.15E+00    1.2     0.00000287      -253.1950841088 -3.65E-07
  Decoupling Energy:                                               0.0372392266
  Recoupling Energy:                                              -0.0063761904
     7 OT DIIS     0.15E+00    1.2     0.00000084      -253.1950841498 -4.10E-08

  *** SCF run converged in     7 steps ***


  Electronic density on regular grids:       -180.0000000000       -0.0000000000
  Core density on regular grids:              180.9999999999       -0.0000000001
  Total charge density on r-space grids:        0.9999999999
  Total charge density g-space grids:           0.9999999999

  Overlap energy of the core charge distribution:               0.00001843306561
  Self energy of the core charge distribution:               -615.71576003586028
  Core Hamiltonian energy:                                    191.21897514001708
  Hartree energy:                                             248.05851497648035
  Exchange-correlation energy:                                -61.40903319343298
  Hartree-Fock Exchange energy:                               -18.11645548305862
  QM/MM Electrostatic energy:                                   2.76865601301708

  Total energy:                                              -253.19508414977176

  outer SCF iter =    1 RMS gradient =   0.84E-06 energy =       -253.1950841498
  outer SCF loop converged in   1 iterations or    7 steps

  Decoupling Energy:                                               0.0372392294
  Recoupling Energy:                                              -0.0063761904

 ENERGY| Total FORCE_EVAL ( QMMM ) energy [a.u.]:          -1057.339965195876175

 MD| ***************************************************************************
 MD| Step number                                                               6
 MD| Time [fs]                                                          6.000000
 MD| Conserved quantity [hartree]                            -0.842900323637E+03
 MD| ---------------------------------------------------------------------------
 MD|                                          Instantaneous             Averages
 MD| CPU time per MD step [s]                     39.271337            48.227777
 MD| Energy drift per atom [K]           0.111144433072E+02   0.671968572322E+01
 MD| Potential energy [hartree]         -0.105733996520E+04  -0.107243400950E+04
 MD| Total kinetic energy [hartree]      0.214439641559E+03   0.228421527981E+03
 MD| QM kinetic energy [hartree]         0.141133189579E+00   0.132884727133E+00
 MD| Total temperature [K]                       268.833555           286.362031
 MD| QM temperature [K]                          436.924346           411.388509
 MD| ***************************************************************************

 -------------------------------------------------------------------------------
 -                                                                             -
 -                                DBCSR STATISTICS                             -
 -                                                                             -
 -------------------------------------------------------------------------------
 COUNTER                                    TOTAL       BLAS       SMM       ACC
 flops    22 x    26 x    26              7287280     100.0%      0.0%      0.0%
 flops     9 x    26 x    26             13031928     100.0%      0.0%      0.0%
 flops    18 x    26 x    26             13628160     100.0%      0.0%      0.0%
 flops    26 x    26 x    26             14447472     100.0%      0.0%      0.0%
 flops    22 x    32 x    32             22077440     100.0%      0.0%      0.0%
 flops     9 x    32 x    26             25159680     100.0%      0.0%      0.0%
 flops     9 x    26 x    32             25159680     100.0%      0.0%      0.0%
 flops    18 x    32 x    26             33546240     100.0%      0.0%      0.0%
 flops    18 x    26 x    32             33546240     100.0%      0.0%      0.0%
 flops    26 x    26 x    32             35563008     100.0%      0.0%      0.0%
 flops    26 x    32 x    26             35563008     100.0%      0.0%      0.0%
 flops    32 x    26 x    26             35563008     100.0%      0.0%      0.0%
 flops    53 x    26 x    26             40127360     100.0%      0.0%      0.0%
 flops    62 x    26 x    26             46941440     100.0%      0.0%      0.0%
 flops     9 x    26 x   133             47056464     100.0%      0.0%      0.0%
 flops     9 x    26 x   146             51655968     100.0%      0.0%      0.0%
 flops    18 x    26 x   133             62741952     100.0%      0.0%      0.0%
 flops     9 x    26 x   124             65808288     100.0%      0.0%      0.0%
 flops    18 x    26 x   146             68874624     100.0%      0.0%      0.0%
 flops     9 x    32 x    32             70447104     100.0%      0.0%      0.0%
 flops    18 x    32 x    32             82575360     100.0%      0.0%      0.0%
 flops    26 x    26 x   133             83074992     100.0%      0.0%      0.0%
 flops    32 x    32 x    26             87539712     100.0%      0.0%      0.0%
 flops    26 x    32 x    32             87539712     100.0%      0.0%      0.0%
 flops    32 x    26 x    32             87539712     100.0%      0.0%      0.0%
 flops    18 x    26 x   124             87744384     100.0%      0.0%      0.0%
 flops    26 x    26 x   146             91195104     100.0%      0.0%      0.0%
 flops    53 x    26 x    32             98775040     100.0%      0.0%      0.0%
 flops    53 x    32 x    26             98775040     100.0%      0.0%      0.0%
 flops    62 x    26 x    32            115548160     100.0%      0.0%      0.0%
 flops    62 x    32 x    26            115548160     100.0%      0.0%      0.0%
 flops     9 x    32 x   133            115831296     100.0%      0.0%      0.0%
 flops    26 x    26 x   124            116180064     100.0%      0.0%      0.0%
 flops    31 x    26 x    26            117353600     100.0%      0.0%      0.0%
 flops     9 x    32 x   146            127153152     100.0%      0.0%      0.0%
 flops    18 x    32 x   133            154441728     100.0%      0.0%      0.0%
 flops     9 x    32 x   124            161989632     100.0%      0.0%      0.0%
 flops     9 x     9 x    26            165405240     100.0%      0.0%      0.0%
 flops    18 x    32 x   146            169537536     100.0%      0.0%      0.0%
 flops    53 x    26 x   133            184740192     100.0%      0.0%      0.0%
 flops    53 x    26 x   146            202797504     100.0%      0.0%      0.0%
 flops    26 x    32 x   133            204492288     100.0%      0.0%      0.0%
 flops    32 x    26 x   133            204492288     100.0%      0.0%      0.0%
 flops    32 x    32 x    32            215482368     100.0%      0.0%      0.0%
 flops    18 x    32 x   124            215986176     100.0%      0.0%      0.0%
 flops    62 x    26 x   133            216111168     100.0%      0.0%      0.0%
 flops    26 x    32 x   146            224480256     100.0%      0.0%      0.0%
 flops    32 x    26 x   146            224480256     100.0%      0.0%      0.0%
 flops    62 x    26 x   146            237234816     100.0%      0.0%      0.0%
 flops    53 x    32 x    32            243138560     100.0%      0.0%      0.0%
 flops    53 x    26 x   124            258358464     100.0%      0.0%      0.0%
 flops    62 x    32 x    32            284426240     100.0%      0.0%      0.0%
 flops    26 x    32 x   124            285981696     100.0%      0.0%      0.0%
 flops    32 x    26 x   124            285981696     100.0%      0.0%      0.0%
 flops    31 x    32 x    26            288870400     100.0%      0.0%      0.0%
 flops    31 x    26 x    32            288870400     100.0%      0.0%      0.0%
 flops    62 x    26 x   124            302230656     100.0%      0.0%      0.0%
 flops     9 x     9 x    32            407151360     100.0%      0.0%      0.0%
 flops    22 x     9 x    26            415855440     100.0%      0.0%      0.0%
 flops     9 x    22 x    26            416576160     100.0%      0.0%      0.0%
 flops    53 x    32 x   133            454745088     100.0%      0.0%      0.0%
 flops    53 x    32 x   146            499193856     100.0%      0.0%      0.0%
 flops    32 x    32 x   133            503365632     100.0%      0.0%      0.0%
 flops    62 x    32 x   133            531965952     100.0%      0.0%      0.0%
 flops    31 x    26 x   133            540277920     100.0%      0.0%      0.0%
 flops    32 x    32 x   146            552566784     100.0%      0.0%      0.0%
 flops    62 x    32 x   146            583962624     100.0%      0.0%      0.0%
 flops    31 x    26 x   146            593087040     100.0%      0.0%      0.0%
 flops    53 x    32 x   124            635959296     100.0%      0.0%      0.0%
 flops    32 x    32 x   124            703954944     100.0%      0.0%      0.0%
 flops    31 x    32 x    32            711065600     100.0%      0.0%      0.0%
 flops    62 x    32 x   124            743952384     100.0%      0.0%      0.0%
 flops    31 x    26 x   124            755576640     100.0%      0.0%      0.0%
 flops     9 x    26 x     9            802701900     100.0%      0.0%      0.0%
 flops    22 x     9 x    32           1023644160     100.0%      0.0%      0.0%
 flops     9 x    22 x    32           1025418240     100.0%      0.0%      0.0%
 flops    22 x    22 x    26           1109908800     100.0%      0.0%      0.0%
 flops    31 x    32 x   133           1329914880     100.0%      0.0%      0.0%
 flops    31 x    32 x   146           1459906560     100.0%      0.0%      0.0%
 flops    31 x    32 x   124           1859880960     100.0%      0.0%      0.0%
 flops     9 x    32 x     9           1975881600     100.0%      0.0%      0.0%
 flops     9 x    26 x    22           2081079000     100.0%      0.0%      0.0%
 flops    22 x    26 x     9           2081079000     100.0%      0.0%      0.0%
 flops    22 x    22 x    32           2732083200     100.0%      0.0%      0.0%
 flops    22 x    32 x     9           5122656000     100.0%      0.0%      0.0%
 flops     9 x    32 x    22           5122656000     100.0%      0.0%      0.0%
 flops    22 x    26 x    22           5395390000     100.0%      0.0%      0.0%
 flops    22 x    32 x    22          13280960000     100.0%      0.0%      0.0%
 flops inhomo. stacks                 25264809360     100.0%      0.0%      0.0%
 flops total                        87.997356E+09     100.0%      0.0%      0.0%
 flops max/rank                      7.887670E+09     100.0%      0.0%      0.0%
 matmuls inhomo. stacks                     64701     100.0%      0.0%      0.0%
 matmuls total                            3110193     100.0%      0.0%      0.0%
 number of processed stacks                767895     100.0%      0.0%      0.0%
 average stack size                                     4.1       0.0       0.0
 marketing flops                    85.702451E+09
 -------------------------------------------------------------------------------
 # multiplications                           1307
 max memory usage/rank               3.454648E+09
 # max total images/rank                        2
 # max 3D layers                                1
 # MPI messages exchanged                  543712
 MPI messages size (bytes):
  total size                        24.061067E+09
  min size                           0.000000E+00
  max size                         315.360000E+03
  average size                      44.253332E+03
 MPI breakdown and total messages size (bytes):
             size <=      128              319535                        0
       128 < size <=     8192               44613                321217632
      8192 < size <=    32768               47082               1385410320
     32768 < size <=   131072               65058               3164106960
    131072 < size <=  4194304               67424              19190370584
   4194304 < size <= 16777216                   0                        0
  16777216 < size                               0                        0
 -------------------------------------------------------------------------------

 *** WARNING in dbcsr_mm.F:294 :: Using a non-square number of MPI ranks ***
 *** might lead to poor performance. Used ranks: 32 Suggested: 36 64     ***

 -------------------------------------------------------------------------------
 -                                                                             -
 -                      DBCSR MESSAGE PASSING PERFORMANCE                      -
 -                                                                             -
 -------------------------------------------------------------------------------
 ROUTINE             CALLS      AVE VOLUME [Bytes]
 MP_Bcast               89                     12.
 MP_Allreduce         7031                      8.
 MP_Alltoall          5386                  14279.
 MP_ISend            40386                  23230.
 MP_IRecv            39924                  22264.
 -------------------------------------------------------------------------------

 -------------------------------------------------------------------------------
 -                                                                             -
 -                                GRID STATISTICS                              -
 -                                                                             -
 -------------------------------------------------------------------------------
 LP    KERNEL             BACKEND                              COUNT     PERCENT
 2     collocate ortho    REF                                1126269      19.15%
 2     integrate ortho    REF                                1106014      18.80%
 1     collocate ortho    REF                                 943978      16.05%
 1     integrate ortho    REF                                 870340      14.80%
 3     integrate ortho    REF                                 570062       9.69%
 3     collocate ortho    REF                                 500530       8.51%
 0     collocate ortho    REF                                 281245       4.78%
 0     integrate ortho    REF                                 249988       4.25%
 4     integrate ortho    REF                                 121240       2.06%
 4     collocate ortho    REF                                  73823       1.26%
 0     collocate general  REF                                  15232       0.26%
 1     integrate general  REF                                  15232       0.26%
 5     integrate ortho    REF                                   8201       0.14%
 -------------------------------------------------------------------------------

 MEMORY| Estimated peak process memory [MiB]                                3313

 -------------------------------------------------------------------------------
 -                                                                             -
 -                         MESSAGE PASSING PERFORMANCE                         -
 -                                                                             -
 -------------------------------------------------------------------------------

 ROUTINE             CALLS      AVE VOLUME [Bytes]
 MP_Group                8
 MP_Bcast             6942               10565475.
 MP_Allreduce         2477                1659272.
 MP_Sync               437
 MP_Alltoall          1344               35661819.
 MP_ISendRecv        12803                 111864.
 MP_Wait             20454
 MP_comm_split          21
 MP_ISend             6475                 861828.
 MP_IRecv             6468                 861818.
 MP_Recv                49                 102432.
 -------------------------------------------------------------------------------


 -------------------------------------------------------------------------------
 -                                                                             -
 -                           R E F E R E N C E S                               -
 -                                                                             -
 -------------------------------------------------------------------------------
 
 CP2K version 8.2, the CP2K developers group (2021).
 CP2K is freely available from https://www.cp2k.org/ .

 Kuehne,Thomas D.; Iannuzzi,Marcella; Del Ben,Mauro;
 Rybkin,Vladimir V.; Seewald,Patrick; Stein,Frederick; Laino,Teodoro;
 Khaliullin,Rustam Z.; Schuett,Ole; Schiffmann,Florian; Golze,Dorothea;
 Wilhelm,Jan; Chulkov,Sergey; Bani-Hashemian,Mohammad Hossein;
 Weber,Valery; Borstnik,Urban; Taillefumier,Mathieu;
 Jakobovits,Alice Shoshana; Lazzaro,Alfio; Pabst,Hans; Mueller,Tiziano;
 Schade,Robert; Guidon,Manuel; Andermatt,Samuel; Holmberg,Nico;
 Schenter,Gregory K.; Hehn,Anna; Bussy,Augustin; Belleflamme,Fabian;
 Tabacchi,Gloria; Gloess,Andreas; Lass,Michael; Bethune,Iain;
 Mundy,Christopher J.; Plessl,Christian; Watkins,Matt;
 VandeVondele,Joost; Krack,Matthias; Hutter,Juerg. 
 The Journal of Chemical Physics, 152 (19), (2020). 
 CP2K: An electronic structure and molecular dynamics software package -
 Quickstep: Efficient and accurate electronic structure calculations.
 https://doi.org/10.1063/5.0007045

 Schuett, Ole; Messmer, Peter; Hutter, Juerg; VandeVondele, Joost. 
 Electronic Structure Calculations on Graphics Processing Units, John
 Wiley & Sons, Ltd, 173-190 (2016). 
 GPU-Accelerated Sparse Matrix-Matrix Multiplication for
 Linear Scaling Density Functional Theory.
 https://doi.org/10.1002/9781118670712.ch8

 Borstnik, U; VandeVondele, J; Weber, V; Hutter, J. 
 PARALLEL COMPUTING, 40 (5-6), 47-58 (2014). 
 Sparse matrix multiplication: The distributed block-compressed sparse
 row library.
 https://doi.org/10.1016/j.parco.2014.03.012

 Hutter, J; Iannuzzi, M; Schiffmann, F; VandeVondele, J. 
 WIREs Comput Mol Sci., 4 (1), 15-25 (2014). 
 CP2K: atomistic simulations of condensed matter systems.
 https://doi.org/10.1002/wcms.1159

 Marek, A; Blum, V; Johanni, R; Havu, V; Lang, B; Auckenthaler, T;
 Heinecke, A; Bungartz, H; Lederer, H. 
 Journal of Physics: Condensed Matter, 26 (21), (2014). 
 The ELPA library: scalable parallel eigenvalue solutions for
 electronic structure
 theory and computational science.
 https://doi.org/10.1088/0953-8984/26/21/213201

 Guidon, M; Hutter, J; VandeVondele, J. 
 JOURNAL OF CHEMICAL THEORY AND COMPUTATION, 5 (11), 3010-3021 (2009). 
 Robust Periodic Hartree-Fock Exchange for Large-Scale Simulations Using
 Gaussian Basis Sets.
 https://doi.org/10.1021/ct900494g

 Guidon, M; Schiffmann, F; Hutter, J; VandeVondele, J. 
 JOURNAL OF CHEMICAL PHYSICS, 128 (21), 214104 (2008). 
 Ab initio molecular dynamics using hybrid density functionals.
 https://doi.org/10.1063/1.2931945

 Kuhne, TD; Krack, M; Mohamed, FR; Parrinello, M. 
 PHYSICAL REVIEW LETTERS, 98 (6), 066401 (2007). 
 Efficient and accurate Car-Parrinello-like approach to
 Born-Oppenheimer molecular dynamics.
 https://doi.org/10.1103/PhysRevLett.98.066401

 Laino, T; Mohamed, F; Laio, A; Parrinello, M. 
 JOURNAL OF CHEMICAL THEORY AND COMPUTATION, 2 (5), 1370-1378 (2006). 
 An efficient linear-scaling electrostatic coupling for treating
 periodic boundary conditions in QM/MM simulations.
 https://doi.org/10.1021/ct6001169

 Laino, T; Mohamed, F; Laio, A; Parrinello, M. 
 JOURNAL OF CHEMICAL THEORY AND COMPUTATION, 1 (6), 1176-1184 (2005). 
 An efficient real space multigrid QM/MM electrostatic coupling.
 https://doi.org/10.1021/ct050123f

 Krack, M. 
 THEORETICAL CHEMISTRY ACCOUNTS, 114 (1-3), 145-152 (2005). 
 Pseudopotentials for H to Kr optimized for gradient-corrected
 exchange-correlation functionals.
 https://doi.org/10.1007/s00214-005-0655-y

 VandeVondele, J; Krack, M; Mohamed, F; Parrinello, M; Chassaing, T;
 Hutter, J. COMPUTER PHYSICS COMMUNICATIONS, 167 (2), 103-128 (2005). 
 QUICKSTEP: Fast and accurate density functional calculations using a
 mixed Gaussian and plane waves approach.
 https://doi.org/10.1016/j.cpc.2004.12.014

 Frigo, M; Johnson, SG. 
 PROCEEDINGS OF THE IEEE, 93 (2), 216-231 (2005). 
 The design and implementation of FFTW3.
 https://doi.org/10.1109/JPROC.2004.840301

 Kolafa, J. 
 JOURNAL OF COMPUTATIONAL CHEMISTRY, 25 (3), 335-342 (2004). 
 Time-reversible always stable predictor-corrector method for molecular dynamics of polarizable molecules.
 https://doi.org/10.1002/jcc.10385

 VandeVondele, J; Hutter, J. 
 JOURNAL OF CHEMICAL PHYSICS, 118 (10), 4365-4369 (2003). 
 An efficient orbital transformation method for electronic structure
 calculations.
 https://doi.org/10.1063/1.1543154

 Hartwigsen, C; Goedecker, S; Hutter, J. 
 PHYSICAL REVIEW B, 58 (7), 3641-3662 (1998). 
 Relativistic separable dual-space Gaussian pseudopotentials from H to Rn.
 https://doi.org/10.1103/PhysRevB.58.3641

 Lippert, G; Hutter, J; Parrinello, M. 
 MOLECULAR PHYSICS, 92 (3), 477-487 (1997). 
 A hybrid Gaussian and plane wave density functional scheme.
 https://doi.org/10.1080/002689797170220

 Perdew, JP; Burke, K; Ernzerhof, M. 
 PHYSICAL REVIEW LETTERS, 77 (18), 3865-3868 (1996). 
 Generalized gradient approximation made simple.
 https://doi.org/10.1103/PhysRevLett.77.3865

 Goedecker, S; Teter, M; Hutter, J. 
 PHYSICAL REVIEW B, 54 (3), 1703-1710 (1996). 
 Separable dual-space Gaussian pseudopotentials.
 https://doi.org/10.1103/PhysRevB.54.1703

 ESSMANN, U; PERERA, L; BERKOWITZ, ML; DARDEN, T; LEE, H; PEDERSEN, LG. 
 JOURNAL OF CHEMICAL PHYSICS, 103 (19), 8577-8593 (1995). 
 A SMOOTH PARTICLE MESH EWALD METHOD.
 https://doi.org/10.1063/1.470117

 BLOCHL, PE. 
 JOURNAL OF CHEMICAL PHYSICS, 103 (17), 7422-7428 (1995). 
 ELECTROSTATIC DECOUPLING OF PERIODIC IMAGES OF PLANE-WAVE-EXPANDED
 DENSITIES AND DERIVED ATOMIC POINT CHARGES.
 https://doi.org/10.1063/1.470314


 -------------------------------------------------------------------------------
 -                                                                             -
 -                                T I M I N G                                  -
 -                                                                             -
 -------------------------------------------------------------------------------
 SUBROUTINE                       CALLS  ASD         SELF TIME        TOTAL TIME
                                MAXIMUM       AVERAGE  MAXIMUM  AVERAGE  MAXIMUM
 CP2K                                 1  1.0    0.164    0.183  332.109  332.110
 qs_mol_dyn_low                       1  2.0    0.007    0.007  290.242  291.840
 velocity_verlet                      6  3.0    0.017    0.025  241.567  241.654
 qs_forces                            7  3.9    0.001    0.001  169.879  169.879
 rebuild_ks_matrix                   63  8.5    0.000    0.000  150.163  150.174
 qs_ks_build_kohn_sham_matrix        63  9.5    0.010    0.011  150.163  150.174
 hfx_ks_matrix                       63 10.5    0.002    0.002  121.740  121.887
 qs_energies                          7  4.9    0.000    0.000   95.248   95.275
 scf_env_do_scf                       7  5.9    0.000    0.001   91.967   91.967
 qs_ks_update_qs_env                 63  7.8    0.001    0.001   75.657   75.667
 qs_ks_update_qs_env_forces           7  4.9    0.000    0.000   74.515   74.517
 derivatives_four_center              7  8.9    0.020    0.270   68.059   68.060
 derivatives_four_center_main         7  9.9    0.185    0.287   67.623   67.625
 derivatives_four_center_bin        639 10.9   66.543   67.452   66.543   67.452
 scf_env_do_scf_inner_loop           56  6.8    0.001    0.003   57.000   57.011
 qmmm_el_coupling                     7  3.9    0.000    0.000   56.197   56.382
 qmmm_elec_with_gaussian              7  4.9    0.739    0.758   56.191   56.376
 qmmm_forces                          7  3.9    0.018    0.019   55.324   55.325
 qmmm_forces_with_gaussian            7  4.9    0.735    0.744   54.366   54.853
 integrate_four_center               63 11.5    3.660    4.496   53.672   53.819
 integrate_four_center_main          63 12.5    0.125    0.165   46.317   46.940
 integrate_four_center_bin         4195 13.5   46.193   46.833   46.193   46.833
 qmmm_env_create                      1  2.0    7.405    7.475   40.055   40.056
 qmmm_elec_with_gaussian_low          7  5.9    0.000    0.000   35.984   36.837
 init_scf_loop                        7  6.9    0.000    0.000   34.952   34.953
 qmmm_force_with_gaussian_low         7  5.9    0.000    0.000   31.074   31.393
 fist_init                            1  3.0    0.000    0.000   29.641   29.641
 qmmm_forces_gaussian_low_R           7  6.9    0.000    0.000   25.639   25.980
 qmmm_forces_with_gaussian_LG         7  7.9   25.639   25.980   25.639   25.980
 qmmm_elec_gaussian_low_R             7  6.9    0.000    0.000   23.136   23.921
 qmmm_elec_with_gaussian_LG           7  7.9   23.136   23.921   23.136   23.921
 pw_transfer                       1337 12.0    0.088    0.099   20.995   22.127
 fft_wrap_pw1pw2                   1113 13.1    0.011    0.012   20.634   21.763
 pw_integral_ab                    2967  7.5   21.092   21.595   21.183   21.679
 fft_wrap_pw1pw2_200                707 14.4    2.171    2.229   19.993   21.111
 pw_restrict_s3                      21  5.9    2.388    2.455   18.366   18.658
 fft3d_ps                          1113 15.1    7.728    7.876   16.081   17.225
 qs_vxc_create                       63 10.5    0.001    0.001   16.858   16.860
 xc_vxc_pw_create                    63 11.5    0.433    0.472   16.857   16.859
 force_field_control                  1  4.0    0.000    0.000   15.585   15.846
 rdparm_amber_8                       2  6.5   12.712   12.952   15.194   15.364
 qs_rho_update_rho                   63  7.9    0.001    0.001   14.682   14.687
 calculate_rho_elec                  63  8.9    0.236    0.238   14.681   14.686
 topology_control                     1  4.0    0.000    0.000   13.894   14.245
 qmmm_elec_with_gaussian:spline       7  5.9    0.000    0.000   13.847   14.034
 pw_prolongate_s3                    21  6.9    1.796    1.867   13.847   14.034
 qmmm_elec_gaussian_low_G             7  6.9   12.848   13.042   12.848   13.042
 mp_sum_dm3                          38  5.7   11.108   12.342   11.108   12.342
 density_rs2pw                       63  9.9    0.003    0.003    8.547    9.177
 force_field_pack                     1  5.0    0.008    0.009    8.468    8.607
 rs_pw_transfer                     546 11.8    0.009    0.011    7.888    8.526
 xc_rho_set_and_dset_create          63 12.5    0.167    0.171    7.951    8.522
 connectivity_control                 2  4.0    0.000    0.001    8.304    8.305
 read_connectivity_amber              1  6.0    0.000    0.000    8.190    8.192
 read_force_field_amber               1  5.0    0.012    0.012    7.015    7.186
 mp_alltoall_z22v                  1113 17.1    5.854    6.931    5.854    6.931
 -------------------------------------------------------------------------------

 The number of warnings for this run is : 1
 
 -------------------------------------------------------------------------------
  **** **** ******  **  PROGRAM ENDED AT                 2021-09-01 11:43:40.693
 ***** ** ***  *** **   PROGRAM RAN ON                                 nid001442
 **    ****   ******    PROGRAM RAN BY                                     hjbio
 ***** **    ** ** **   PROGRAM PROCESS ID                                 25206
  **** **  *******  **  PROGRAM STOPPED IN /lus/cls01095/work/d118/d118/hjbio/qm
                                           mm-benchmarking/archer2/CPU/cp2kMD/CB
                                           D_PHY-PBE0/6STEPS/2NODES/128CPN/8THRE
                                           ADS
