 DBCSR| CPU Multiplication driver                                           BLAS
 DBCSR| Multrec recursion limit                                              512
 DBCSR| Multiplication stack size                                           1000
 DBCSR| Maximum elements for images                                    UNLIMITED
 DBCSR| Multiplicative factor virtual images                                   1
 DBCSR| Use multiplication densification                                       T
 DBCSR| Multiplication size stacks                                             3
 DBCSR| Use memory pool for CPU allocation                                     F
 DBCSR| Number of 3D layers                                               SINGLE
 DBCSR| Use MPI memory allocation                                              F
 DBCSR| Use RMA algorithm                                                      F
 DBCSR| Use Communication thread                                               T
 DBCSR| Communication thread load                                             75
 DBCSR| MPI: My node id                                                        0
 DBCSR| MPI: Number of nodes                                                  64
 DBCSR| OMP: Current number of threads                                         4
 DBCSR| OMP: Max number of threads                                             4
 DBCSR| Split modifier for TAS multiplication algorithm                  1.0E+00


  **** **** ******  **  PROGRAM STARTED AT               2021-10-20 17:49:52.815
 ***** ** ***  *** **   PROGRAM STARTED ON                             nid001086
 **    ****   ******    PROGRAM STARTED BY                                 hjbio
 ***** **    ** ** **   PROGRAM PROCESS ID                                239688
  **** **  *******  **  PROGRAM STARTED IN /lus/cls01095/work/d118/d118/hjbio/qm
                                           mm-benchmarking/archer2/CPU/cp2kMD/MQ
                                           AE-B3LYP-large/6STEPS/2NODES/128CPN/4
                                           THREADS

 CP2K| version string:                                          CP2K version 8.2
 CP2K| source code revision number:                                  git:310b7ab
 CP2K| cp2kflags: omp libint fftw3 libxc elpa parallel mpi3 scalapack plumed2   
 CP2K| is freely available from                            https://www.cp2k.org/
 CP2K| Program compiled at                          Thu 10 Jun 17:43:51 BST 2021
 CP2K| Program compiled on                                                 uan01
 CP2K| Program compiled for                                              ARCHER2
 CP2K| Data directory path              /work/d118/d118/hjbio/CP2K/cp2k-8.2/data
 CP2K| Input file name                                             mqae-cp2k.inp

 GLOBAL| Force Environment number                                              1
 GLOBAL| Basis set file name                                     EMSL_BASIS_SETS
 GLOBAL| Potential file name                                           POTENTIAL
 GLOBAL| MM Potential file name                                     MM_POTENTIAL
 GLOBAL| Coordinate file name                                           mqae.pdb
 GLOBAL| Method name                                                        CP2K
 GLOBAL| Project name                                           MQAE-B3LYP-large
 GLOBAL| Run type                                                             MD
 GLOBAL| FFT library                                                       FFTW3
 GLOBAL| Diagonalization library                                            ELPA
 GLOBAL| Minimum number of eigenvectors for ELPA usage                        16
 GLOBAL| Orthonormality check for eigenvectors                          DISABLED
 GLOBAL| Matrix multiplication library                                    SCALAP
 GLOBAL| All-to-all communication in single precision                          F
 GLOBAL| FFTs using library dependent lengths                                  F
 GLOBAL| Grid backend                                                       AUTO
 GLOBAL| Global print level                                                  LOW
 GLOBAL| MPI I/O enabled                                                       T
 GLOBAL| Total number of message passing processes                            64
 GLOBAL| Number of threads for this process                                    4
 GLOBAL| This output is from process                                           0
 GLOBAL| CPU model name                          AMD EPYC 7742 64-Core Processor
 GLOBAL| CPUID                                                              1002

 MEMORY| system memory details [Kb]
 MEMORY|                        rank 0           min           max       average
 MEMORY| MemTotal            263568576     263568576     263568576     263568576
 MEMORY| MemFree             242336516     241727720     242336516     242032118
 MEMORY| Buffers                231224        128804        231224        180014
 MEMORY| Cached                8017164       6197652       8017164       7107408
 MEMORY| Slab                  2862924       2862924       4246068       3554496
 MEMORY| SReclaimable           378416        275248        378416        326832
 MEMORY| MemLikelyFree       250963320     248329424     250963320     249646372



                      ************* ******** ***********   
                     ************* **********************  
                     ****     **** ****      ***********   
                     ******** ****  *******     ****       
                     *******  ****   *******   ****        
                     ****     ****       ****  ****        
                     ****     **** **********  ****        
                      ****     **** ********    ****       
                     FRONTIERS IN SIMULATION TECHNOLOGY    
                                                           
                        C.J. Mundy, S. Balasubramanian,    
                     Ken Bagchi, J. Hutter, Ari Seitsonen  
                      IFW Kuo, T. Laino, J. VandeVondele   
                                 Version 1.0               

                                                           


 EWALD| Summation is done by:                                               SPME
 EWALD| Alpha parameter [       ANGSTROM^-1]                              0.4000
 EWALD| Real Space Cutoff [          ANGSTROM]                            8.4348
 EWALD| G-space max. Miller index                         80        80        80
 EWALD| Spline interpolation order                                             6

 FORCEFIELD| WARNING: A non Critical ForceField parameter is missing! CP2K GOES!
 FORCEFIELD| Non critical parameters are:Urey-Bradley,Torsions,Impropers, Opbends and 1-4
 FORCEFIELD| All missing parameters will not contribute to the potential energy!
 FORCEFIELD| Activate the print key FF_INFO to have a list of missing parameters

 CHARGE_INFO| Total Charge of the Classical System:                     0.000000

 SPLINE_INFO| Generating 465 splines for NONBONDED14 interactions 
              Due to 30 different atomic kinds
  ...46  ...92  ...138  ...184  ...230  ...276  ...322  ...368  ...414  ...460
 SPLINE_INFO| Number of unique splines computed:            22
 SPLINE_INFO| Done

 SPLINE_INFO| Generating 465 splines for NONBONDED interactions 
              Due to 30 different atomic kinds
  ...46  ...92  ...138  ...184  ...230  ...276  ...322  ...368  ...414  ...460
 SPLINE_INFO| Number of unique splines computed:            22
 SPLINE_INFO| Done

 *******************************************************************************
 *******************************************************************************
 **                                                                           **
 **     #####                         ##              ##                      **
 **    ##   ##            ##          ##              ##                      **
 **   ##     ##                       ##            ######                    **
 **   ##     ##  ##   ##  ##   #####  ##  ##   ####   ##    #####    #####    **
 **   ##     ##  ##   ##  ##  ##      ## ##   ##      ##   ##   ##  ##   ##   **
 **   ##  ## ##  ##   ##  ##  ##      ####     ###    ##   ######   ######    **
 **    ##  ###   ##   ##  ##  ##      ## ##      ##   ##   ##       ##        **
 **     #######   #####   ##   #####  ##  ##  ####    ##    #####   ##        **
 **           ##                                                    ##        **
 **                                                                           **
 **                                                ... make the atoms dance   **
 **                                                                           **
 **            Copyright (C) by CP2K developers group (2000-2021)             **
 **                      J. Chem. Phys. 152, 194103 (2020)                    **
 **                                                                           **
 *******************************************************************************


 TOTAL NUMBERS AND MAXIMUM NUMBERS

  Total number of            - Atomic kinds:                                   4
                             - Atoms:                                         34
                             - Shell sets:                                   120
                             - Shells:                                       156
                             - Primitive Cartesian functions:                278
                             - Cartesian basis functions:                    350
                             - Spherical basis functions:                    332

  Maximum angular momentum of- Orbital basis functions:                        2
                             - Local part of the GTH pseudopotential:          2
                             - Non-local part of the GTH pseudopotential:      0


 SCF PARAMETERS         Density guess:                                   RESTART
                        --------------------------------------------------------
                        max_scf:                                              20
                        max_scf_history:                                       0
                        max_diis:                                              4
                        --------------------------------------------------------
                        eps_scf:                                        1.00E-06
                        eps_scf_history:                                0.00E+00
                        eps_diis:                                       1.00E-01
                        eps_eigval:                                     1.00E-05
                        --------------------------------------------------------
                        level_shift [a.u.]:                                 0.00
                        --------------------------------------------------------
                        Outer loop SCF in use 
                        No variables optimised in outer loop
                        eps_scf                                         1.00E-06
                        max_scf                                               20
                        No outer loop optimization
                        step_size                                       5.00E-01

 *******************************************************************************
 *******************************************************************************
 **                                                                           **
 **             #######  ##     ## ##     ## ##     ##                        **
 **            ##     ## ###   ### ###   ### ###   ###                        **
 **            ##     ## #### #### #### #### #### ####                        **
 **            ##     ## ## ### ## ## ### ## ## ### ##                        **
 **            ##  ## ## ##     ## ##     ## ##     ##                        **
 **            ##    ##  ##     ## ##     ## ##     ##  T.Laino and F.Mohamed **
 **             ##### ## ##     ## ##     ## ##     ##  2005 - 2015           **
 **                                                                           **
 **                                                     Calculation Started.. **
 *******************************************************************************
 *******************************************************************************

 MD_PAR| Molecular dynamics protocol (MD input parameters)
 MD_PAR| Ensemble type                                                       NVE
 MD_PAR| Number of time steps                                                  6
 MD_PAR| Time step [fs]                                                 1.000000
 MD_PAR| Temperature [K]                                              300.000000
 MD_PAR| Temperature tolerance [K]                                      0.000000
 MD_PAR| Print MD information every                                    1 step(s)
 MD_PAR| File type   Print frequency [steps]                          File names
 MD_PAR| Coordinates          1                       MQAE-B3LYP-large-pos-1.xyz
 MD_PAR| Velocities           1                       MQAE-B3LYP-large-vel-1.xyz
 MD_PAR| Energies             1                          MQAE-B3LYP-large-1.ener
 MD_PAR| Dump                20                       MQAE-B3LYP-large-1.restart

 ROT| Rotational analysis information
 ROT| Principal axes and moments of inertia [a.u.]
 ROT|                           1                   2                   3
 ROT| Eigenvalues      8.16955424013E+10   8.26770351780E+10   8.33145263212E+10
 ROT|      x              0.339476722416      0.927826629059     -0.154574581827
 ROT|      y              0.779693760491     -0.369496170761     -0.505519751982
 ROT|      z              0.526149403486     -0.051091351539      0.848855982490
 ROT| Number of rotovibrational vectors                                        6

 DOF| Calculation of degrees of freedom
 DOF| Number of atoms                                                       7186
 DOF| Number of intramolecular constraints                                     0
 DOF| Number of intermolecular constraints                                     0
 DOF| Invariants (translations + rotations)                                    3
 DOF| Degrees of freedom                                                   21555

 DOF| Restraints information
 DOF| Number of intramolecular restraints                                      0
 DOF| Number of intermolecular restraints                                      0

 MD_VEL| Velocities initialization
 MD_VEL| Initial temperature [K]                                      300.000000
 MD_VEL| COM velocity            -0.0000000000     0.0000000000    -0.0000000000

  Translating the system in order to center the QM fragment in the QM box.

 Number of electrons:                                                         94
 Number of occupied orbitals:                                                 47
 Number of molecular orbitals:                                                47

 Number of orbital functions:                                                332
 Number of independent orbital functions:                                    332

 Extrapolation method: initial_guess


 SCF WAVEFUNCTION OPTIMIZATION

  ----------------------------------- OT ---------------------------------------
  Minimizer      : DIIS                : direct inversion
                                         in the iterative subspace
                                         using   7 DIIS vectors
                                         safer DIIS on
  Preconditioner : FULL_ALL            : diagonalization, state selective
  Precond_solver : DEFAULT
  stepsize       :    0.15000000                  energy_gap     :    0.08000000
  eps_taylor     :   0.10000E-15                  max_taylor     :             4
  ----------------------------------- OT ---------------------------------------

  Step     Update method      Time    Convergence         Total energy    Change
  ------------------------------------------------------------------------------
  Decoupling Energy:                                               0.0283460848
  Recoupling Energy:                                              -0.0186066200

 *** WARNING in hfx_energy_potential.F:592 :: The Kohn Sham matrix is not  ***
 *** 100% occupied. This may result in incorrect Hartree-Fock results. Try ***
 *** to decrease EPS_PGF_ORB and EPS_FILTER_MATRIX in the QS section. For  ***
 *** more information see FAQ: https://www.cp2k.org/faq:hfx_eps_warning    ***

     1 OT DIIS     0.15E+00    3.4     0.00000025      -146.5977626342 -1.47E+02

  *** SCF run converged in     1 steps ***


  Electronic density on regular grids:        -94.0000165540       -0.0000165540
  Core density on regular grids:               94.9999999999       -0.0000000001
  Total charge density on r-space grids:        0.9999834459
  Total charge density g-space grids:           0.9999834459

  Overlap energy of the core charge distribution:               0.00000599177744
  Self energy of the core charge distribution:               -359.57183942644110
  Core Hamiltonian energy:                                    110.60238234958592
  Hartree energy:                                             145.62298264309823
  Exchange-correlation energy:                                -35.08977447599262
  Hartree-Fock Exchange energy:                                -7.83561671024789
  QM/MM Electrostatic energy:                                  -0.32590300597829

  Total energy:                                              -146.59776263419835

  outer SCF iter =    1 RMS gradient =   0.25E-06 energy =       -146.5977626342
  outer SCF loop converged in   1 iterations or    1 steps

  Decoupling Energy:                                               0.0283460885
  Recoupling Energy:                                              -0.0186066196

 ENERGY| Total FORCE_EVAL ( QMMM ) energy [a.u.]:           -125.274615354175069

 MD_INI| MD initialization
 MD_INI| Potential energy [hartree]                          -0.125274615354E+03
 MD_INI| Total kinetic energy [hartree]                       0.102391057087E+02
 MD_INI| QM kinetic energy [hartree]                          0.538313910515E-01
 MD_INI| Total temperature [K]                                        300.000000
 MD_INI| QM temperature [K]                                           333.305658
 MD_INI| Cell volume [bohr^3]                                 4.911308927827E+05
 MD_INI| Cell volume [ang^3]                                  7.277808868775E+04
 MD_INI| Cell lengths [bohr]      7.88979558E+01  7.88979558E+01  7.88979558E+01
 MD_INI| Cell lengths [ang]       4.17510000E+01  4.17510000E+01  4.17510000E+01
 MD_INI| Cell angles [deg]        9.00000000E+01  9.00000000E+01  9.00000000E+01

  Translating the system in order to center the QM fragment in the QM box.

 Number of electrons:                                                         94
 Number of occupied orbitals:                                                 47
 Number of molecular orbitals:                                                47

 Number of orbital functions:                                                332
 Number of independent orbital functions:                                    332

 Extrapolation method: ASPC


 SCF WAVEFUNCTION OPTIMIZATION

  ----------------------------------- OT ---------------------------------------
  Minimizer      : DIIS                : direct inversion
                                         in the iterative subspace
                                         using   7 DIIS vectors
                                         safer DIIS on
  Preconditioner : FULL_ALL            : diagonalization, state selective
  Precond_solver : DEFAULT
  stepsize       :    0.15000000                  energy_gap     :    0.08000000
  eps_taylor     :   0.10000E-15                  max_taylor     :             4
  ----------------------------------- OT ---------------------------------------

  Step     Update method      Time    Convergence         Total energy    Change
  ------------------------------------------------------------------------------
  Decoupling Energy:                                               0.0283463393
  Recoupling Energy:                                              -0.0186067276

 *** WARNING in hfx_energy_potential.F:592 :: The Kohn Sham matrix is not  ***
 *** 100% occupied. This may result in incorrect Hartree-Fock results. Try ***
 *** to decrease EPS_PGF_ORB and EPS_FILTER_MATRIX in the QS section. For  ***
 *** more information see FAQ: https://www.cp2k.org/faq:hfx_eps_warning    ***

     1 OT DIIS     0.15E+00    2.5     0.00263344      -146.4802776532 -1.46E+02
  Decoupling Energy:                                               0.0283348436
  Recoupling Energy:                                              -0.0186023755
     2 OT DIIS     0.15E+00    0.9     0.00099820      -146.4906369320 -1.04E-02
  Decoupling Energy:                                               0.0283386056
  Recoupling Energy:                                              -0.0186029443
     3 OT DIIS     0.15E+00    0.8     0.00037983      -146.4923378090 -1.70E-03
  Decoupling Energy:                                               0.0283352659
  Recoupling Energy:                                              -0.0186018418
     4 OT DIIS     0.15E+00    0.8     0.00014245      -146.4925388987 -2.01E-04
  Decoupling Energy:                                               0.0283369490
  Recoupling Energy:                                              -0.0186025014
     5 OT DIIS     0.15E+00    0.8     0.00005119      -146.4925548278 -1.59E-05
  Decoupling Energy:                                               0.0283364431
  Recoupling Energy:                                              -0.0186022736
     6 OT DIIS     0.15E+00    0.8     0.00001954      -146.4925572117 -2.38E-06
  Decoupling Energy:                                               0.0283365050
  Recoupling Energy:                                              -0.0186023528
     7 OT DIIS     0.15E+00    0.8     0.00000601      -146.4925575374 -3.26E-07
  Decoupling Energy:                                               0.0283365504
  Recoupling Energy:                                              -0.0186023485
     8 OT DIIS     0.15E+00    0.8     0.00000292      -146.4925575824 -4.50E-08
  Decoupling Energy:                                               0.0283365225
  Recoupling Energy:                                              -0.0186023520
     9 OT DIIS     0.15E+00    0.8     0.00000099      -146.4925575892 -6.71E-09

  *** SCF run converged in     9 steps ***


  Electronic density on regular grids:        -93.9999802765        0.0000197235
  Core density on regular grids:               94.9999999999       -0.0000000001
  Total charge density on r-space grids:        1.0000197234
  Total charge density g-space grids:           1.0000197234

  Overlap energy of the core charge distribution:               0.00003300770837
  Self energy of the core charge distribution:               -359.57183942644110
  Core Hamiltonian energy:                                    110.79302692652747
  Hartree energy:                                             145.52494446444081
  Exchange-correlation energy:                                -35.13662043681831
  Hartree-Fock Exchange energy:                                -7.84755937238484
  QM/MM Electrostatic energy:                                  -0.25454275218858

  Total energy:                                              -146.49255758915612

  outer SCF iter =    1 RMS gradient =   0.99E-06 energy =       -146.4925575892
  outer SCF loop converged in   1 iterations or    9 steps

  Decoupling Energy:                                               0.0283365289
  Recoupling Energy:                                              -0.0186023489

 ENERGY| Total FORCE_EVAL ( QMMM ) energy [a.u.]:           -154.709329663402571

 MD| ***************************************************************************
 MD| Step number                                                               1
 MD| Time [fs]                                                          1.000000
 MD| Conserved quantity [hartree]                            -0.123704268791E+03
 MD| ---------------------------------------------------------------------------
 MD|                                          Instantaneous             Averages
 MD| CPU time per MD step [s]                     44.448185            44.448185
 MD| Energy drift per atom [K]          -0.380931584579E+03   0.000000000000E+00
 MD| Potential energy [hartree]         -0.154709329663E+03  -0.154709329663E+03
 MD| Total kinetic energy [hartree]      0.310050608728E+02   0.310050608728E+02
 MD| QM kinetic energy [hartree]         0.223345352605E+00   0.223345352605E+00
 MD| Total temperature [K]                       908.430729           908.430729
 MD| QM temperature [K]                         1382.878433          1382.878433
 MD| ***************************************************************************

  Translating the system in order to center the QM fragment in the QM box.

 Number of electrons:                                                         94
 Number of occupied orbitals:                                                 47
 Number of molecular orbitals:                                                47

 Number of orbital functions:                                                332
 Number of independent orbital functions:                                    332

 Extrapolation method: ASPC


 SCF WAVEFUNCTION OPTIMIZATION

  ----------------------------------- OT ---------------------------------------
  Minimizer      : DIIS                : direct inversion
                                         in the iterative subspace
                                         using   7 DIIS vectors
                                         safer DIIS on
  Preconditioner : FULL_ALL            : diagonalization, state selective
  Precond_solver : DEFAULT
  stepsize       :    0.15000000                  energy_gap     :    0.08000000
  eps_taylor     :   0.10000E-15                  max_taylor     :             4
  ----------------------------------- OT ---------------------------------------

  Step     Update method      Time    Convergence         Total energy    Change
  ------------------------------------------------------------------------------
  Decoupling Energy:                                               0.0283178845
  Recoupling Energy:                                              -0.0185955958

 *** WARNING in hfx_energy_potential.F:592 :: The Kohn Sham matrix is not  ***
 *** 100% occupied. This may result in incorrect Hartree-Fock results. Try ***
 *** to decrease EPS_PGF_ORB and EPS_FILTER_MATRIX in the QS section. For  ***
 *** more information see FAQ: https://www.cp2k.org/faq:hfx_eps_warning    ***

     1 OT DIIS     0.15E+00    2.3     0.00187895      -146.0906331447 -1.46E+02
  Decoupling Energy:                                               0.0283230982
  Recoupling Energy:                                              -0.0185968812
     2 OT DIIS     0.15E+00    0.9     0.00073316      -146.0960622427 -5.43E-03
  Decoupling Energy:                                               0.0283187899
  Recoupling Energy:                                              -0.0185958408
     3 OT DIIS     0.15E+00    0.8     0.00026714      -146.0970258779 -9.64E-04
  Decoupling Energy:                                               0.0283214092
  Recoupling Energy:                                              -0.0185958906
     4 OT DIIS     0.15E+00    0.8     0.00012005      -146.0971141679 -8.83E-05
  Decoupling Energy:                                               0.0283199774
  Recoupling Energy:                                              -0.0185957220
     5 OT DIIS     0.15E+00    0.8     0.00003253      -146.0971247572 -1.06E-05
  Decoupling Energy:                                               0.0283203037
  Recoupling Energy:                                              -0.0185958241
     6 OT DIIS     0.15E+00    0.8     0.00001172      -146.0971259496 -1.19E-06
  Decoupling Energy:                                               0.0283202491
  Recoupling Energy:                                              -0.0185957501
     7 OT DIIS     0.15E+00    0.8     0.00000432      -146.0971260686 -1.19E-07
  Decoupling Energy:                                               0.0283202296
  Recoupling Energy:                                              -0.0185957717
     8 OT DIIS     0.15E+00    0.8     0.00000194      -146.0971260878 -1.92E-08
  Decoupling Energy:                                               0.0283202434
  Recoupling Energy:                                              -0.0185957649
     9 OT DIIS     0.15E+00    0.8     0.00000068      -146.0971260909 -3.16E-09

  *** SCF run converged in     9 steps ***


  Electronic density on regular grids:        -93.9999880614        0.0000119386
  Core density on regular grids:               94.9999999999       -0.0000000001
  Total charge density on r-space grids:        1.0000119386
  Total charge density g-space grids:           1.0000119386

  Overlap energy of the core charge distribution:               0.00018038921404
  Self energy of the core charge distribution:               -359.57183942644110
  Core Hamiltonian energy:                                    111.01048006970240
  Hartree energy:                                             145.43424848071828
  Exchange-correlation energy:                                -35.18660952640013
  Hartree-Fock Exchange energy:                                -7.85986497329184
  QM/MM Electrostatic energy:                                   0.07627889557092

  Total energy:                                              -146.09712609092742

  outer SCF iter =    1 RMS gradient =   0.68E-06 energy =       -146.0971260909
  outer SCF loop converged in   1 iterations or    9 steps

  Decoupling Energy:                                               0.0283202385
  Recoupling Energy:                                              -0.0185957661

 ENERGY| Total FORCE_EVAL ( QMMM ) energy [a.u.]:           -147.708745852770846

 MD| ***************************************************************************
 MD| Step number                                                               2
 MD| Time [fs]                                                          2.000000
 MD| Conserved quantity [hartree]                            -0.119951807273E+03
 MD| ---------------------------------------------------------------------------
 MD|                                          Instantaneous             Averages
 MD| CPU time per MD step [s]                     24.679905            34.564045
 MD| Energy drift per atom [K]          -0.216037037610E+03  -0.108018518805E+03
 MD| Potential energy [hartree]         -0.147708745853E+03  -0.151209037758E+03
 MD| Total kinetic energy [hartree]      0.277569385799E+02   0.293809997264E+02
 MD| QM kinetic energy [hartree]         0.278596254828E+00   0.250970803716E+00
 MD| Total temperature [K]                       813.262585           860.846657
 MD| QM temperature [K]                         1724.973221          1553.925827
 MD| ***************************************************************************

  Translating the system in order to center the QM fragment in the QM box.

 Number of electrons:                                                         94
 Number of occupied orbitals:                                                 47
 Number of molecular orbitals:                                                47

 Number of orbital functions:                                                332
 Number of independent orbital functions:                                    332

 Extrapolation method: ASPC


 SCF WAVEFUNCTION OPTIMIZATION

  ----------------------------------- OT ---------------------------------------
  Minimizer      : DIIS                : direct inversion
                                         in the iterative subspace
                                         using   7 DIIS vectors
                                         safer DIIS on
  Preconditioner : FULL_ALL            : diagonalization, state selective
  Precond_solver : DEFAULT
  stepsize       :    0.15000000                  energy_gap     :    0.08000000
  eps_taylor     :   0.10000E-15                  max_taylor     :             4
  ----------------------------------- OT ---------------------------------------

  Step     Update method      Time    Convergence         Total energy    Change
  ------------------------------------------------------------------------------
  Decoupling Energy:                                               0.0282926218
  Recoupling Energy:                                              -0.0185861429

 *** WARNING in hfx_energy_potential.F:592 :: The Kohn Sham matrix is not  ***
 *** 100% occupied. This may result in incorrect Hartree-Fock results. Try ***
 *** to decrease EPS_PGF_ORB and EPS_FILTER_MATRIX in the QS section. For  ***
 *** more information see FAQ: https://www.cp2k.org/faq:hfx_eps_warning    ***

     1 OT DIIS     0.15E+00    2.0     0.00311623      -145.7602058646 -1.46E+02
  Decoupling Energy:                                               0.0283071969
  Recoupling Energy:                                              -0.0185887320
     2 OT DIIS     0.15E+00    0.9     0.00115483      -145.7748427449 -1.46E-02
  Decoupling Energy:                                               0.0282986174
  Recoupling Energy:                                              -0.0185884145
     3 OT DIIS     0.15E+00    0.8     0.00047227      -145.7770878292 -2.25E-03
  Decoupling Energy:                                               0.0283055327
  Recoupling Energy:                                              -0.0185889969
     4 OT DIIS     0.15E+00    0.8     0.00020496      -145.7773209586 -2.33E-04
  Decoupling Energy:                                               0.0283024459
  Recoupling Energy:                                              -0.0185885710
     5 OT DIIS     0.15E+00    0.8     0.00005117      -145.7773534131 -3.25E-05
[1634748676.671293] [nid001086:239714:0]          ib_md.c:325  UCX  ERROR ibv_reg_mr(address=0x2ad14b000000, length=20971520, access=0xf) failed: Invalid argument
[1634748676.673658] [nid001086:239714:0]          mpool.c:192  UCX  ERROR Failed to allocate memory pool (name=ud_recv_skb) chunk: Input/output error
[1634748676.673774] [nid001086:239714:0]          ib_md.c:325  UCX  ERROR ibv_reg_mr(address=0x2ad14b000000, length=20971520, access=0xf) failed: Invalid argument
[1634748676.674374] [nid001086:239714:0]          mpool.c:192  UCX  ERROR Failed to allocate memory pool (name=ud_recv_skb) chunk: Input/output error
[1634748676.674466] [nid001086:239714:0]          ib_md.c:325  UCX  ERROR ibv_reg_mr(address=0x2ad14b000000, length=20971520, access=0xf) failed: Invalid argument
[1634748676.675039] [nid001086:239714:0]          mpool.c:192  UCX  ERROR Failed to allocate memory pool (name=ud_recv_skb) chunk: Input/output error
[1634748676.675127] [nid001086:239714:0]          ib_md.c:325  UCX  ERROR ibv_reg_mr(address=0x2ad14b000000, length=20971520, access=0xf) failed: Invalid argument
[1634748676.675641] [nid001086:239714:0]          mpool.c:192  UCX  ERROR Failed to allocate memory pool (name=ud_recv_skb) chunk: Input/output error
[1634748676.675718] [nid001086:239714:0]          ib_md.c:325  UCX  ERROR ibv_reg_mr(address=0x2ad14b000000, length=20971520, access=0xf) failed: Invalid argument
[1634748676.676213] [nid001086:239714:0]          mpool.c:192  UCX  ERROR Failed to allocate memory pool (name=ud_recv_skb) chunk: Input/output error
[1634748676.676289] [nid001086:239714:0]          ib_md.c:325  UCX  ERROR ibv_reg_mr(address=0x2ad14b000000, length=20971520, access=0xf) failed: Invalid argument
[1634748676.676773] [nid001086:239714:0]          mpool.c:192  UCX  ERROR Failed to allocate memory pool (name=ud_recv_skb) chunk: Input/output error
[1634748676.676842] [nid001086:239714:0]          ib_md.c:325  UCX  ERROR ibv_reg_mr(address=0x2ad14b000000, length=20971520, access=0xf) failed: Invalid argument
[1634748676.677317] [nid001086:239714:0]          mpool.c:192  UCX  ERROR Failed to allocate memory pool (name=ud_recv_skb) chunk: Input/output error
[1634748676.677390] [nid001086:239714:0]          ib_md.c:325  UCX  ERROR ibv_reg_mr(address=0x2ad14b000000, length=20971520, access=0xf) failed: Invalid argument
[1634748676.677872] [nid001086:239714:0]          mpool.c:192  UCX  ERROR Failed to allocate memory pool (name=ud_recv_skb) chunk: Input/output error
[1634748676.677945] [nid001086:239714:0]          ib_md.c:325  UCX  ERROR ibv_reg_mr(address=0x2ad14b000000, length=20971520, access=0xf) failed: Invalid argument
[1634748676.678435] [nid001086:239714:0]          mpool.c:192  UCX  ERROR Failed to allocate memory pool (name=ud_recv_skb) chunk: Input/output error
[1634748676.678508] [nid001086:239714:0]          ib_md.c:325  UCX  ERROR ibv_reg_mr(address=0x2ad14b000000, length=20971520, access=0xf) failed: Invalid argument
[1634748676.679004] [nid001086:239714:0]          mpool.c:192  UCX  ERROR Failed to allocate memory pool (name=ud_recv_skb) chunk: Input/output error
[1634748676.679077] [nid001086:239714:0]          ib_md.c:325  UCX  ERROR ibv_reg_mr(address=0x2ad14b000000, length=20971520, access=0xf) failed: Invalid argument
[1634748676.679568] [nid001086:239714:0]          mpool.c:192  UCX  ERROR Failed to allocate memory pool (name=ud_recv_skb) chunk: Input/output error
[1634748676.679645] [nid001086:239714:0]          ib_md.c:325  UCX  ERROR ibv_reg_mr(address=0x2ad14b000000, length=20971520, access=0xf) failed: Invalid argument
[1634748676.680144] [nid001086:239714:0]          mpool.c:192  UCX  ERROR Failed to allocate memory pool (name=ud_recv_skb) chunk: Input/output error
[1634748676.680221] [nid001086:239714:0]          ib_md.c:325  UCX  ERROR ibv_reg_mr(address=0x2ad14b000000, length=20971520, access=0xf) failed: Invalid argument
[1634748676.680721] [nid001086:239714:0]          mpool.c:192  UCX  ERROR Failed to allocate memory pool (name=ud_recv_skb) chunk: Input/output error
[1634748676.680793] [nid001086:239714:0]          ib_md.c:325  UCX  ERROR ibv_reg_mr(address=0x2ad14b000000, length=20971520, access=0xf) failed: Invalid argument
[1634748676.681282] [nid001086:239714:0]          mpool.c:192  UCX  ERROR Failed to allocate memory pool (name=ud_recv_skb) chunk: Input/output error
[1634748676.681354] [nid001086:239714:0]          ib_md.c:325  UCX  ERROR ibv_reg_mr(address=0x2ad14b000000, length=20971520, access=0xf) failed: Invalid argument
[1634748676.681828] [nid001086:239714:0]          mpool.c:192  UCX  ERROR Failed to allocate memory pool (name=ud_recv_skb) chunk: Input/output error
[1634748676.681897] [nid001086:239714:0]          ib_md.c:325  UCX  ERROR ibv_reg_mr(address=0x2ad14b000000, length=20971520, access=0xf) failed: Invalid argument
[1634748676.682379] [nid001086:239714:0]          mpool.c:192  UCX  ERROR Failed to allocate memory pool (name=ud_recv_skb) chunk: Input/output error
[1634748676.682452] [nid001086:239714:0]          ib_md.c:325  UCX  ERROR ibv_reg_mr(address=0x2ad14b000000, length=20971520, access=0xf) failed: Invalid argument
[1634748676.682952] [nid001086:239714:0]          mpool.c:192  UCX  ERROR Failed to allocate memory pool (name=ud_recv_skb) chunk: Input/output error
[1634748676.683029] [nid001086:239714:0]          ib_md.c:325  UCX  ERROR ibv_reg_mr(address=0x2ad14b000000, length=20971520, access=0xf) failed: Invalid argument
[1634748676.683522] [nid001086:239714:0]          mpool.c:192  UCX  ERROR Failed to allocate memory pool (name=ud_recv_skb) chunk: Input/output error
[1634748676.683596] [nid001086:239714:0]          ib_md.c:325  UCX  ERROR ibv_reg_mr(address=0x2ad14b000000, length=20971520, access=0xf) failed: Invalid argument
[1634748676.684081] [nid001086:239714:0]          mpool.c:192  UCX  ERROR Failed to allocate memory pool (name=ud_recv_skb) chunk: Input/output error
[1634748676.684156] [nid001086:239714:0]          ib_md.c:325  UCX  ERROR ibv_reg_mr(address=0x2ad14b000000, length=20971520, access=0xf) failed: Invalid argument
[1634748676.684641] [nid001086:239714:0]          mpool.c:192  UCX  ERROR Failed to allocate memory pool (name=ud_recv_skb) chunk: Input/output error
[1634748676.684707] [nid001086:239714:0]          ib_md.c:325  UCX  ERROR ibv_reg_mr(address=0x2ad14b000000, length=20971520, access=0xf) failed: Invalid argument
[1634748676.685179] [nid001086:239714:0]          mpool.c:192  UCX  ERROR Failed to allocate memory pool (name=ud_recv_skb) chunk: Input/output error
  Decoupling Energy:                                               0.0283028742
  Recoupling Energy:                                              -0.0185886279
     6 OT DIIS     0.15E+00    0.8     0.00001691      -145.7773563147 -2.90E-06
  Decoupling Energy:                                               0.0283028461
  Recoupling Energy:                                              -0.0185885644
     7 OT DIIS     0.15E+00    0.8     0.00000704      -145.7773565783 -2.64E-07
  Decoupling Energy:                                               0.0283028614
  Recoupling Energy:                                              -0.0185885992
     8 OT DIIS     0.15E+00    0.8     0.00000314      -145.7773566295 -5.12E-08
  Decoupling Energy:                                               0.0283028639
  Recoupling Energy:                                              -0.0185885829
     9 OT DIIS     0.15E+00    0.8     0.00000105      -145.7773566371 -7.64E-09
  Decoupling Energy:                                               0.0283028605
  Recoupling Energy:                                              -0.0185885872
    10 OT DIIS     0.15E+00    0.8     0.00000025      -145.7773566384 -1.31E-09

  *** SCF run converged in    10 steps ***


  Electronic density on regular grids:        -94.0000514264       -0.0000514264
  Core density on regular grids:               94.9999999999       -0.0000000001
  Total charge density on r-space grids:        0.9999485735
  Total charge density g-space grids:           0.9999485735

  Overlap energy of the core charge distribution:               0.00001383812478
  Self energy of the core charge distribution:               -359.57183942644110
  Core Hamiltonian energy:                                    110.90961267695997
  Hartree energy:                                             145.46428509094360
  Exchange-correlation energy:                                -35.16778652519862
  Hartree-Fock Exchange energy:                                -7.85418470124225
  QM/MM Electrostatic energy:                                   0.44254240840432

  Total energy:                                              -145.77735663844928

  outer SCF iter =    1 RMS gradient =   0.25E-06 energy =       -145.7773566384
  outer SCF loop converged in   1 iterations or   10 steps

  Decoupling Energy:                                               0.0283028604
  Recoupling Energy:                                              -0.0185885863

 ENERGY| Total FORCE_EVAL ( QMMM ) energy [a.u.]:           -142.851634355536277

 MD| ***************************************************************************
 MD| Step number                                                               3
 MD| Time [fs]                                                          3.000000
 MD| Conserved quantity [hartree]                            -0.117148613476E+03
 MD| ---------------------------------------------------------------------------
 MD|                                          Instantaneous             Averages
 MD| CPU time per MD step [s]                     25.626432            31.584841
 MD| Energy drift per atom [K]          -0.928561951236E+02  -0.102964410911E+03
 MD| Potential energy [hartree]         -0.142851634356E+03  -0.148423236624E+03
 MD| Total kinetic energy [hartree]      0.257030208792E+02   0.281550067773E+02
 MD| QM kinetic energy [hartree]         0.353616419970E+00   0.285186009134E+00
 MD| Total temperature [K]                       753.083959           824.925758
 MD| QM temperature [K]                         2189.472559          1765.774738
 MD| ***************************************************************************

  Translating the system in order to center the QM fragment in the QM box.

 Number of electrons:                                                         94
 Number of occupied orbitals:                                                 47
 Number of molecular orbitals:                                                47

 Number of orbital functions:                                                332
 Number of independent orbital functions:                                    332

 Extrapolation method: ASPC


 SCF WAVEFUNCTION OPTIMIZATION

  ----------------------------------- OT ---------------------------------------
  Minimizer      : DIIS                : direct inversion
                                         in the iterative subspace
                                         using   7 DIIS vectors
                                         safer DIIS on
  Preconditioner : FULL_ALL            : diagonalization, state selective
  Precond_solver : DEFAULT
  stepsize       :    0.15000000                  energy_gap     :    0.08000000
  eps_taylor     :   0.10000E-15                  max_taylor     :             4
  ----------------------------------- OT ---------------------------------------

  Step     Update method      Time    Convergence         Total energy    Change
  ------------------------------------------------------------------------------
  Decoupling Energy:                                               0.0282874590
  Recoupling Energy:                                              -0.0185834684

 *** WARNING in hfx_energy_potential.F:592 :: The Kohn Sham matrix is not  ***
 *** 100% occupied. This may result in incorrect Hartree-Fock results. Try ***
 *** to decrease EPS_PGF_ORB and EPS_FILTER_MATRIX in the QS section. For  ***
 *** more information see FAQ: https://www.cp2k.org/faq:hfx_eps_warning    ***

     1 OT DIIS     0.15E+00    1.9     0.00287916      -145.4481334040 -1.45E+02
  Decoupling Energy:                                               0.0282861837
  Recoupling Energy:                                              -0.0185859619
     2 OT DIIS     0.15E+00    0.9     0.00113112      -145.4612480709 -1.31E-02
  Decoupling Energy:                                               0.0282869372
  Recoupling Energy:                                              -0.0185834160
     3 OT DIIS     0.15E+00    0.8     0.00040523      -145.4635805719 -2.33E-03
  Decoupling Energy:                                               0.0282870447
  Recoupling Energy:                                              -0.0185861234
     4 OT DIIS     0.15E+00    0.8     0.00016815      -145.4637117032 -1.31E-04
  Decoupling Energy:                                               0.0282867479
  Recoupling Energy:                                              -0.0185852215
     5 OT DIIS     0.15E+00    0.8     0.00003931      -145.4637309114 -1.92E-05
  Decoupling Energy:                                               0.0282870412
  Recoupling Energy:                                              -0.0185854308
     6 OT DIIS     0.15E+00    0.8     0.00001405      -145.4637324914 -1.58E-06
  Decoupling Energy:                                               0.0282868685
  Recoupling Energy:                                              -0.0185854067
     7 OT DIIS     0.15E+00    0.8     0.00000564      -145.4637326771 -1.86E-07
  Decoupling Energy:                                               0.0282869013
  Recoupling Energy:                                              -0.0185854019
     8 OT DIIS     0.15E+00    0.8     0.00000197      -145.4637327142 -3.71E-08
  Decoupling Energy:                                               0.0282868889
  Recoupling Energy:                                              -0.0185854038
     9 OT DIIS     0.15E+00    0.8     0.00000076      -145.4637327177 -3.50E-09

  *** SCF run converged in     9 steps ***


  Electronic density on regular grids:        -94.0000182418       -0.0000182418
  Core density on regular grids:               94.9999999999       -0.0000000001
  Total charge density on r-space grids:        0.9999817582
  Total charge density g-space grids:           0.9999817582

  Overlap energy of the core charge distribution:               0.00001232484358
  Self energy of the core charge distribution:               -359.57183942644110
  Core Hamiltonian energy:                                    110.82637364041352
  Hartree energy:                                             145.52875036412763
  Exchange-correlation energy:                                -35.13939590302156
  Hartree-Fock Exchange energy:                                -7.84532051852616
  QM/MM Electrostatic energy:                                   0.73768680091553

  Total energy:                                              -145.46373271768857

  outer SCF iter =    1 RMS gradient =   0.76E-06 energy =       -145.4637327177
  outer SCF loop converged in   1 iterations or    9 steps

  Decoupling Energy:                                               0.0282868975
  Recoupling Energy:                                              -0.0185854043

 ENERGY| Total FORCE_EVAL ( QMMM ) energy [a.u.]:           -170.763827493278455

 MD| ***************************************************************************
 MD| Step number                                                               4
 MD| Time [fs]                                                          4.000000
 MD| Conserved quantity [hartree]                            -0.125034989246E+03
 MD| ---------------------------------------------------------------------------
 MD|                                          Instantaneous             Averages
 MD| CPU time per MD step [s]                     24.915259            29.917445
 MD| Energy drift per atom [K]          -0.439407479816E+03  -0.187075178137E+03
 MD| Potential energy [hartree]         -0.170763827493E+03  -0.154008384341E+03
 MD| Total kinetic energy [hartree]      0.457288382476E+02   0.325484646449E+02
 MD| QM kinetic energy [hartree]         0.372100696306E+00   0.306914680927E+00
 MD| Total temperature [K]                      1339.829070           953.651586
 MD| QM temperature [K]                         2303.920909          1900.311281
 MD| ***************************************************************************

  Translating the system in order to center the QM fragment in the QM box.

 Number of electrons:                                                         94
 Number of occupied orbitals:                                                 47
 Number of molecular orbitals:                                                47

 Number of orbital functions:                                                332
 Number of independent orbital functions:                                    332

 Extrapolation method: ASPC


 SCF WAVEFUNCTION OPTIMIZATION

  ----------------------------------- OT ---------------------------------------
  Minimizer      : DIIS                : direct inversion
                                         in the iterative subspace
                                         using   7 DIIS vectors
                                         safer DIIS on
  Preconditioner : FULL_ALL            : diagonalization, state selective
  Precond_solver : DEFAULT
  stepsize       :    0.15000000                  energy_gap     :    0.08000000
  eps_taylor     :   0.10000E-15                  max_taylor     :             4
  ----------------------------------- OT ---------------------------------------

  Step     Update method      Time    Convergence         Total energy    Change
  ------------------------------------------------------------------------------
  Decoupling Energy:                                               0.0282788120
  Recoupling Energy:                                              -0.0185851027

 *** WARNING in hfx_energy_potential.F:592 :: The Kohn Sham matrix is not  ***
 *** 100% occupied. This may result in incorrect Hartree-Fock results. Try ***
 *** to decrease EPS_PGF_ORB and EPS_FILTER_MATRIX in the QS section. For  ***
 *** more information see FAQ: https://www.cp2k.org/faq:hfx_eps_warning    ***

     1 OT DIIS     0.15E+00    1.6     0.00178505      -145.1177796774 -1.45E+02
  Decoupling Energy:                                               0.0282660165
  Recoupling Energy:                                              -0.0185789958
     2 OT DIIS     0.15E+00    0.9     0.00077806      -145.1228048630 -5.03E-03
  Decoupling Energy:                                               0.0282765379
  Recoupling Energy:                                              -0.0185847885
     3 OT DIIS     0.15E+00    0.8     0.00056526      -145.1236580505 -8.53E-04
  Decoupling Energy:                                               0.0282701704
  Recoupling Energy:                                              -0.0185812489
     4 OT DIIS     0.15E+00    0.8     0.00008093      -145.1238732774 -2.15E-04
  Decoupling Energy:                                               0.0282698834
  Recoupling Energy:                                              -0.0185814167
     5 OT DIIS     0.15E+00    0.9     0.00002387      -145.1238785626 -5.29E-06
  Decoupling Energy:                                               0.0282700787
  Recoupling Energy:                                              -0.0185814153
     6 OT DIIS     0.15E+00    0.8     0.00001026      -145.1238791482 -5.86E-07
  Decoupling Energy:                                               0.0282700325
  Recoupling Energy:                                              -0.0185814248
     7 OT DIIS     0.15E+00    0.8     0.00000268      -145.1238792591 -1.11E-07
  Decoupling Energy:                                               0.0282700482
  Recoupling Energy:                                              -0.0185814350
     8 OT DIIS     0.15E+00    0.8     0.00000096      -145.1238792689 -9.73E-09

  *** SCF run converged in     8 steps ***


  Electronic density on regular grids:        -94.0000121869       -0.0000121869
  Core density on regular grids:               94.9999999999       -0.0000000001
  Total charge density on r-space grids:        0.9999878130
  Total charge density g-space grids:           0.9999878130

  Overlap energy of the core charge distribution:               0.00001160791069
  Self energy of the core charge distribution:               -359.57183942644110
  Core Hamiltonian energy:                                    110.75386742542803
  Hartree energy:                                             145.60013481784233
  Exchange-correlation energy:                                -35.10793802928320
  Hartree-Fock Exchange energy:                                -7.83496081735750
  QM/MM Electrostatic energy:                                   1.03684515304200

  Total energy:                                              -145.12387926885879

  outer SCF iter =    1 RMS gradient =   0.96E-06 energy =       -145.1238792689
  outer SCF loop converged in   1 iterations or    8 steps

  Decoupling Energy:                                               0.0282700460
  Recoupling Energy:                                              -0.0185814297

 ENERGY| Total FORCE_EVAL ( QMMM ) energy [a.u.]:           -144.452941327367967

 MD| ***************************************************************************
 MD| Step number                                                               5
 MD| Time [fs]                                                          5.000000
 MD| Conserved quantity [hartree]                            -0.116721645864E+03
 MD| ---------------------------------------------------------------------------
 MD|                                          Instantaneous             Averages
 MD| CPU time per MD step [s]                     24.086314            28.751219
 MD| Energy drift per atom [K]          -0.740939425073E+02  -0.164478931011E+03
 MD| Potential energy [hartree]         -0.144452941327E+03  -0.152097295738E+03
 MD| Total kinetic energy [hartree]      0.277312954629E+02   0.315850308085E+02
 MD| QM kinetic energy [hartree]         0.356972191995E+00   0.316926183141E+00
 MD| Total temperature [K]                       812.511256           925.423520
 MD| QM temperature [K]                         2210.250358          1962.299096
 MD| ***************************************************************************

  Translating the system in order to center the QM fragment in the QM box.

 Number of electrons:                                                         94
 Number of occupied orbitals:                                                 47
 Number of molecular orbitals:                                                47

 Number of orbital functions:                                                332
 Number of independent orbital functions:                                    332

 Extrapolation method: ASPC


 SCF WAVEFUNCTION OPTIMIZATION

  ----------------------------------- OT ---------------------------------------
  Minimizer      : DIIS                : direct inversion
                                         in the iterative subspace
                                         using   7 DIIS vectors
                                         safer DIIS on
  Preconditioner : FULL_ALL            : diagonalization, state selective
  Precond_solver : DEFAULT
  stepsize       :    0.15000000                  energy_gap     :    0.08000000
  eps_taylor     :   0.10000E-15                  max_taylor     :             4
  ----------------------------------- OT ---------------------------------------

  Step     Update method      Time    Convergence         Total energy    Change
  ------------------------------------------------------------------------------
  Decoupling Energy:                                               0.0282614496
  Recoupling Energy:                                              -0.0185788725

 *** WARNING in hfx_energy_potential.F:592 :: The Kohn Sham matrix is not  ***
 *** 100% occupied. This may result in incorrect Hartree-Fock results. Try ***
 *** to decrease EPS_PGF_ORB and EPS_FILTER_MATRIX in the QS section. For  ***
 *** more information see FAQ: https://www.cp2k.org/faq:hfx_eps_warning    ***

     1 OT DIIS     0.15E+00    1.8     0.00071991      -144.6502762452 -1.45E+02
  Decoupling Energy:                                               0.0282580450
  Recoupling Energy:                                              -0.0185780118
     2 OT DIIS     0.15E+00    0.9     0.00029741      -144.6510919562 -8.16E-04
  Decoupling Energy:                                               0.0282618118
  Recoupling Energy:                                              -0.0185791240
     3 OT DIIS     0.15E+00    0.8     0.00015491      -144.6512351481 -1.43E-04
  Decoupling Energy:                                               0.0282591196
  Recoupling Energy:                                              -0.0185782432
     4 OT DIIS     0.15E+00    0.8     0.00003691      -144.6512536097 -1.85E-05
  Decoupling Energy:                                               0.0282595261
  Recoupling Energy:                                              -0.0185784364
     5 OT DIIS     0.15E+00    0.8     0.00000936      -144.6512545198 -9.10E-07
  Decoupling Energy:                                               0.0282595387
  Recoupling Energy:                                              -0.0185784084
     6 OT DIIS     0.15E+00    0.8     0.00000481      -144.6512546004 -8.06E-08
  Decoupling Energy:                                               0.0282595480
  Recoupling Energy:                                              -0.0185784261
     7 OT DIIS     0.15E+00    0.8     0.00000141      -144.6512546198 -1.94E-08
  Decoupling Energy:                                               0.0282595413
  Recoupling Energy:                                              -0.0185784223
     8 OT DIIS     0.15E+00    0.8     0.00000056      -144.6512546226 -2.77E-09

  *** SCF run converged in     8 steps ***


  Electronic density on regular grids:        -93.9999787461        0.0000212539
  Core density on regular grids:               94.9999999999       -0.0000000001
  Total charge density on r-space grids:        1.0000212538
  Total charge density g-space grids:           1.0000212538

  Overlap energy of the core charge distribution:               0.00000896923936
  Self energy of the core charge distribution:               -359.57183942644110
  Core Hamiltonian energy:                                    110.65800224157502
  Hartree energy:                                             145.68413114127952
  Exchange-correlation energy:                                -35.07087864110134
  Hartree-Fock Exchange energy:                                -7.82310091630206
  QM/MM Electrostatic energy:                                   1.47242200918970

  Total energy:                                              -144.65125462256088

  outer SCF iter =    1 RMS gradient =   0.56E-06 energy =       -144.6512546226
  outer SCF loop converged in   1 iterations or    8 steps

  Decoupling Energy:                                               0.0282595454
  Recoupling Energy:                                              -0.0185784234

 ENERGY| Total FORCE_EVAL ( QMMM ) energy [a.u.]:           -156.215669561990154

 MD| ***************************************************************************
 MD| Step number                                                               6
 MD| Time [fs]                                                          6.000000
 MD| Conserved quantity [hartree]                            -0.120486438522E+03
 MD| ---------------------------------------------------------------------------
 MD|                                          Instantaneous             Averages
 MD| CPU time per MD step [s]                     24.954252            28.118391
 MD| Energy drift per atom [K]          -0.239530357163E+03  -0.176987502037E+03
 MD| Potential energy [hartree]         -0.156215669562E+03  -0.152783691376E+03
 MD| Total kinetic energy [hartree]      0.357292310405E+02   0.322757308472E+02
 MD| QM kinetic energy [hartree]         0.332174121628E+00   0.319467506222E+00
 MD| Total temperature [K]                      1046.846240           945.660640
 MD| QM temperature [K]                         2056.709143          1978.034104
 MD| ***************************************************************************

 -------------------------------------------------------------------------------
 -                                                                             -
 -                                DBCSR STATISTICS                             -
 -                                                                             -
 -------------------------------------------------------------------------------
 COUNTER                                    TOTAL       BLAS       SMM       ACC
 flops    15 x    15 x    15              3550500     100.0%      0.0%      0.0%
 flops     5 x    15 x    15              3897000     100.0%      0.0%      0.0%
 flops    33 x    15 x    15              4009500     100.0%      0.0%      0.0%
 flops    24 x    15 x    15              5832000     100.0%      0.0%      0.0%
 flops     5 x     5 x    15              6785250     100.0%      0.0%      0.0%
 flops    28 x    15 x    15              6804000     100.0%      0.0%      0.0%
 flops    15 x    15 x    32              7574400     100.0%      0.0%      0.0%
 flops    15 x    32 x    15              7574400     100.0%      0.0%      0.0%
 flops    32 x    15 x    15              7574400     100.0%      0.0%      0.0%
 flops    15 x    15 x    38              7626600     100.0%      0.0%      0.0%
 flops     5 x    15 x    32              7776000     100.0%      0.0%      0.0%
 flops     5 x    32 x    15              7776000     100.0%      0.0%      0.0%
 flops     5 x    15 x    38              8344800     100.0%      0.0%      0.0%
 flops    15 x    15 x    42              8429400     100.0%      0.0%      0.0%
 flops    33 x    15 x    32              8553600     100.0%      0.0%      0.0%
 flops    33 x    32 x    15              8553600     100.0%      0.0%      0.0%
 flops    33 x    15 x    38              9179280     100.0%      0.0%      0.0%
 flops     5 x    15 x    42              9223200     100.0%      0.0%      0.0%
 flops    19 x    15 x    15              9234000     100.0%      0.0%      0.0%
 flops    14 x    15 x    15              9298800     100.0%      0.0%      0.0%
 flops    33 x    15 x    42             10145520     100.0%      0.0%      0.0%
 flops    24 x    15 x    32             12441600     100.0%      0.0%      0.0%
 flops    24 x    32 x    15             12441600     100.0%      0.0%      0.0%
 flops    24 x    15 x    38             13351680     100.0%      0.0%      0.0%
 flops     5 x     5 x    32             14475200     100.0%      0.0%      0.0%
 flops    28 x    32 x    15             14515200     100.0%      0.0%      0.0%
 flops    28 x    15 x    32             14515200     100.0%      0.0%      0.0%
 flops    24 x    15 x    42             14757120     100.0%      0.0%      0.0%
 flops    28 x    15 x    38             15576960     100.0%      0.0%      0.0%
 flops    32 x    32 x    15             16158720     100.0%      0.0%      0.0%
 flops    15 x    32 x    32             16158720     100.0%      0.0%      0.0%
 flops    32 x    15 x    32             16158720     100.0%      0.0%      0.0%
 flops    15 x    32 x    38             16270080     100.0%      0.0%      0.0%
 flops    32 x    15 x    38             16270080     100.0%      0.0%      0.0%
 flops    28 x    15 x    42             17216640     100.0%      0.0%      0.0%
 flops    15 x    15 x    43             17260200     100.0%      0.0%      0.0%
 flops     5 x    32 x    32             17735680     100.0%      0.0%      0.0%
 flops     5 x    32 x    38             17802240     100.0%      0.0%      0.0%
 flops    15 x    32 x    42             17982720     100.0%      0.0%      0.0%
 flops    32 x    15 x    42             17982720     100.0%      0.0%      0.0%
 flops    14 x    32 x    15             18144000     100.0%      0.0%      0.0%
 flops    14 x    15 x    32             18144000     100.0%      0.0%      0.0%
 flops    33 x    32 x    32             18247680     100.0%      0.0%      0.0%
 flops     5 x    15 x    43             18885600     100.0%      0.0%      0.0%
 flops    14 x    15 x    38             19471200     100.0%      0.0%      0.0%
 flops    33 x    32 x    38             19582464     100.0%      0.0%      0.0%
 flops     5 x    32 x    42             19676160     100.0%      0.0%      0.0%
 flops    19 x    15 x    32             19699200     100.0%      0.0%      0.0%
 flops    19 x    32 x    15             19699200     100.0%      0.0%      0.0%
 flops     5 x    14 x    15             20420400     100.0%      0.0%      0.0%
 flops    14 x     5 x    15             20420400     100.0%      0.0%      0.0%
 flops    33 x    15 x    43             20774160     100.0%      0.0%      0.0%
 flops    19 x    15 x    38             21140160     100.0%      0.0%      0.0%
 flops    14 x    15 x    42             21520800     100.0%      0.0%      0.0%
 flops    33 x    32 x    42             21643776     100.0%      0.0%      0.0%
 flops    19 x    15 x    42             23365440     100.0%      0.0%      0.0%
 flops    24 x    32 x    32             26542080     100.0%      0.0%      0.0%
 flops    24 x    32 x    38             28483584     100.0%      0.0%      0.0%
 flops    24 x    15 x    43             30216960     100.0%      0.0%      0.0%
 flops    28 x    32 x    32             30965760     100.0%      0.0%      0.0%
 flops    24 x    32 x    42             31481856     100.0%      0.0%      0.0%
 flops     5 x    15 x     5             32082000     100.0%      0.0%      0.0%
 flops    28 x    32 x    38             33230848     100.0%      0.0%      0.0%
 flops    32 x    32 x    32             34471936     100.0%      0.0%      0.0%
 flops    32 x    32 x    38             34709504     100.0%      0.0%      0.0%
 flops    28 x    15 x    43             35253120     100.0%      0.0%      0.0%
 flops    28 x    32 x    42             36728832     100.0%      0.0%      0.0%
 flops    15 x    32 x    43             36821760     100.0%      0.0%      0.0%
 flops    32 x    15 x    43             36821760     100.0%      0.0%      0.0%
 flops    32 x    32 x    42             38363136     100.0%      0.0%      0.0%
 flops     5 x    32 x    43             40289280     100.0%      0.0%      0.0%
 flops    14 x    32 x    38             41538560     100.0%      0.0%      0.0%
 flops    19 x    32 x    32             42024960     100.0%      0.0%      0.0%
 flops    14 x    32 x    32             42319872     100.0%      0.0%      0.0%
 flops     5 x    14 x    32             43563520     100.0%      0.0%      0.0%
 flops    14 x     5 x    32             43563520     100.0%      0.0%      0.0%
 flops    14 x    15 x    43             44066400     100.0%      0.0%      0.0%
 flops    33 x    32 x    43             44318208     100.0%      0.0%      0.0%
 flops    19 x    32 x    38             45099008     100.0%      0.0%      0.0%
 flops    14 x    32 x    42             45911040     100.0%      0.0%      0.0%
 flops    19 x    15 x    43             47843520     100.0%      0.0%      0.0%
 flops    19 x    32 x    42             49846272     100.0%      0.0%      0.0%
 flops    24 x    32 x    43             64462848     100.0%      0.0%      0.0%
 flops    14 x    14 x    15             68372640     100.0%      0.0%      0.0%
 flops     5 x    32 x     5             68441600     100.0%      0.0%      0.0%
 flops    28 x    32 x    43             75206656     100.0%      0.0%      0.0%
 flops    32 x    32 x    43             78553088     100.0%      0.0%      0.0%
 flops    14 x    32 x    43             94008320     100.0%      0.0%      0.0%
 flops    19 x    32 x    43            102066176     100.0%      0.0%      0.0%
 flops     5 x    15 x    14            102702600     100.0%      0.0%      0.0%
 flops    14 x    15 x     5            102702600     100.0%      0.0%      0.0%
 flops    14 x    14 x    32            145861632     100.0%      0.0%      0.0%
 flops    14 x    32 x     5            219098880     100.0%      0.0%      0.0%
 flops     5 x    32 x    14            219098880     100.0%      0.0%      0.0%
 flops    14 x    15 x    14            325775520     100.0%      0.0%      0.0%
 flops    14 x    32 x    14            694987776     100.0%      0.0%      0.0%
 flops inhomo. stacks                   105816928     100.0%      0.0%      0.0%
 flops total                         4.241361E+09     100.0%      0.0%      0.0%
 flops max/rank                    505.964096E+06     100.0%      0.0%      0.0%
 matmuls inhomo. stacks                      3032     100.0%      0.0%      0.0%
 matmuls total                             547722     100.0%      0.0%      0.0%
 number of processed stacks                262010     100.0%      0.0%      0.0%
 average stack size                                     2.1       0.0       0.0
 marketing flops                     4.593239E+09
 -------------------------------------------------------------------------------
 # multiplications                           1394
 max memory usage/rank               1.929458E+09
 # max total images/rank                        1
 # max 3D layers                                1
 # MPI messages exchanged                 1249024
 MPI messages size (bytes):
  total size                         2.975145E+09
  min size                           0.000000E+00
  max size                          14.792000E+03
  average size                       2.381976E+03
 MPI breakdown and total messages size (bytes):
             size <=      128              951622                        0
       128 < size <=     8192              101626                485296056
      8192 < size <=    32768              195776               2489849600
     32768 < size <=   131072                   0                        0
    131072 < size <=  4194304                   0                        0
   4194304 < size <= 16777216                   0                        0
  16777216 < size                               0                        0
 -------------------------------------------------------------------------------
 -                                                                             -
 -                      DBCSR MESSAGE PASSING PERFORMANCE                      -
 -                                                                             -
 -------------------------------------------------------------------------------
 ROUTINE             CALLS      AVE VOLUME [Bytes]
 MP_Bcast               97                     12.
 MP_Allreduce         7477                      8.
 MP_Alltoall          5532                   7669.
 MP_ISend            44580                   2473.
 MP_IRecv            44580                   2103.
 -------------------------------------------------------------------------------

 -------------------------------------------------------------------------------
 -                                                                             -
 -                                GRID STATISTICS                              -
 -                                                                             -
 -------------------------------------------------------------------------------
 LP    KERNEL             BACKEND                              COUNT     PERCENT
 1     collocate ortho    REF                                 364270      21.13%
 1     integrate ortho    REF                                 344707      19.99%
 2     integrate ortho    REF                                 236766      13.73%
 2     collocate ortho    REF                                 220240      12.77%
 0     collocate ortho    REF                                 193885      11.25%
 0     integrate ortho    REF                                 171641       9.96%
 3     integrate ortho    REF                                  79768       4.63%
 3     collocate ortho    REF                                  61551       3.57%
 0     collocate general  REF                                  15232       0.88%
 1     integrate general  REF                                  15232       0.88%
 4     integrate ortho    REF                                  13156       0.76%
 4     collocate ortho    REF                                   6881       0.40%
 5     integrate ortho    REF                                    789       0.05%
 -------------------------------------------------------------------------------

 MEMORY| Estimated peak process memory [MiB]                                1841

 -------------------------------------------------------------------------------
 -                                                                             -
 -                         MESSAGE PASSING PERFORMANCE                         -
 -                                                                             -
 -------------------------------------------------------------------------------

 ROUTINE             CALLS      AVE VOLUME [Bytes]
 MP_Group                8
 MP_Bcast              740                4305014.
 MP_Allreduce         2349                2313061.
 MP_Sync               427
 MP_Alltoall          1306               24915201.
 MP_ISendRecv        25263                  46355.
 MP_Wait             32706
 MP_comm_split          21
 MP_ISend             6299                 654064.
 MP_IRecv             6292                 653713.
 MP_Recv                49                  15936.
 -------------------------------------------------------------------------------


 -------------------------------------------------------------------------------
 -                                                                             -
 -                           R E F E R E N C E S                               -
 -                                                                             -
 -------------------------------------------------------------------------------
 
 CP2K version 8.2, the CP2K developers group (2021).
 CP2K is freely available from https://www.cp2k.org/ .

 Kuehne,Thomas D.; Iannuzzi,Marcella; Del Ben,Mauro;
 Rybkin,Vladimir V.; Seewald,Patrick; Stein,Frederick; Laino,Teodoro;
 Khaliullin,Rustam Z.; Schuett,Ole; Schiffmann,Florian; Golze,Dorothea;
 Wilhelm,Jan; Chulkov,Sergey; Bani-Hashemian,Mohammad Hossein;
 Weber,Valery; Borstnik,Urban; Taillefumier,Mathieu;
 Jakobovits,Alice Shoshana; Lazzaro,Alfio; Pabst,Hans; Mueller,Tiziano;
 Schade,Robert; Guidon,Manuel; Andermatt,Samuel; Holmberg,Nico;
 Schenter,Gregory K.; Hehn,Anna; Bussy,Augustin; Belleflamme,Fabian;
 Tabacchi,Gloria; Gloess,Andreas; Lass,Michael; Bethune,Iain;
 Mundy,Christopher J.; Plessl,Christian; Watkins,Matt;
 VandeVondele,Joost; Krack,Matthias; Hutter,Juerg. 
 The Journal of Chemical Physics, 152 (19), (2020). 
 CP2K: An electronic structure and molecular dynamics software package -
 Quickstep: Efficient and accurate electronic structure calculations.
 https://doi.org/10.1063/5.0007045

 Schuett, Ole; Messmer, Peter; Hutter, Juerg; VandeVondele, Joost. 
 Electronic Structure Calculations on Graphics Processing Units, John
 Wiley & Sons, Ltd, 173-190 (2016). 
 GPU-Accelerated Sparse Matrix-Matrix Multiplication for
 Linear Scaling Density Functional Theory.
 https://doi.org/10.1002/9781118670712.ch8

 Borstnik, U; VandeVondele, J; Weber, V; Hutter, J. 
 PARALLEL COMPUTING, 40 (5-6), 47-58 (2014). 
 Sparse matrix multiplication: The distributed block-compressed sparse
 row library.
 https://doi.org/10.1016/j.parco.2014.03.012

 Hutter, J; Iannuzzi, M; Schiffmann, F; VandeVondele, J. 
 WIREs Comput Mol Sci., 4 (1), 15-25 (2014). 
 CP2K: atomistic simulations of condensed matter systems.
 https://doi.org/10.1002/wcms.1159

 Marek, A; Blum, V; Johanni, R; Havu, V; Lang, B; Auckenthaler, T;
 Heinecke, A; Bungartz, H; Lederer, H. 
 Journal of Physics: Condensed Matter, 26 (21), (2014). 
 The ELPA library: scalable parallel eigenvalue solutions for
 electronic structure
 theory and computational science.
 https://doi.org/10.1088/0953-8984/26/21/213201

 Guidon, M; Hutter, J; VandeVondele, J. 
 JOURNAL OF CHEMICAL THEORY AND COMPUTATION, 5 (11), 3010-3021 (2009). 
 Robust Periodic Hartree-Fock Exchange for Large-Scale Simulations Using
 Gaussian Basis Sets.
 https://doi.org/10.1021/ct900494g

 Guidon, M; Schiffmann, F; Hutter, J; VandeVondele, J. 
 JOURNAL OF CHEMICAL PHYSICS, 128 (21), 214104 (2008). 
 Ab initio molecular dynamics using hybrid density functionals.
 https://doi.org/10.1063/1.2931945

 Kuhne, TD; Krack, M; Mohamed, FR; Parrinello, M. 
 PHYSICAL REVIEW LETTERS, 98 (6), 066401 (2007). 
 Efficient and accurate Car-Parrinello-like approach to
 Born-Oppenheimer molecular dynamics.
 https://doi.org/10.1103/PhysRevLett.98.066401

 Laino, T; Mohamed, F; Laio, A; Parrinello, M. 
 JOURNAL OF CHEMICAL THEORY AND COMPUTATION, 2 (5), 1370-1378 (2006). 
 An efficient linear-scaling electrostatic coupling for treating
 periodic boundary conditions in QM/MM simulations.
 https://doi.org/10.1021/ct6001169

 Laino, T; Mohamed, F; Laio, A; Parrinello, M. 
 JOURNAL OF CHEMICAL THEORY AND COMPUTATION, 1 (6), 1176-1184 (2005). 
 An efficient real space multigrid QM/MM electrostatic coupling.
 https://doi.org/10.1021/ct050123f

 Krack, M. 
 THEORETICAL CHEMISTRY ACCOUNTS, 114 (1-3), 145-152 (2005). 
 Pseudopotentials for H to Kr optimized for gradient-corrected
 exchange-correlation functionals.
 https://doi.org/10.1007/s00214-005-0655-y

 VandeVondele, J; Krack, M; Mohamed, F; Parrinello, M; Chassaing, T;
 Hutter, J. COMPUTER PHYSICS COMMUNICATIONS, 167 (2), 103-128 (2005). 
 QUICKSTEP: Fast and accurate density functional calculations using a
 mixed Gaussian and plane waves approach.
 https://doi.org/10.1016/j.cpc.2004.12.014

 Frigo, M; Johnson, SG. 
 PROCEEDINGS OF THE IEEE, 93 (2), 216-231 (2005). 
 The design and implementation of FFTW3.
 https://doi.org/10.1109/JPROC.2004.840301

 Kolafa, J. 
 JOURNAL OF COMPUTATIONAL CHEMISTRY, 25 (3), 335-342 (2004). 
 Time-reversible always stable predictor-corrector method for molecular dynamics of polarizable molecules.
 https://doi.org/10.1002/jcc.10385

 VandeVondele, J; Hutter, J. 
 JOURNAL OF CHEMICAL PHYSICS, 118 (10), 4365-4369 (2003). 
 An efficient orbital transformation method for electronic structure
 calculations.
 https://doi.org/10.1063/1.1543154

 Hartwigsen, C; Goedecker, S; Hutter, J. 
 PHYSICAL REVIEW B, 58 (7), 3641-3662 (1998). 
 Relativistic separable dual-space Gaussian pseudopotentials from H to Rn.
 https://doi.org/10.1103/PhysRevB.58.3641

 Lippert, G; Hutter, J; Parrinello, M. 
 MOLECULAR PHYSICS, 92 (3), 477-487 (1997). 
 A hybrid Gaussian and plane wave density functional scheme.
 https://doi.org/10.1080/002689797170220

 Goedecker, S; Teter, M; Hutter, J. 
 PHYSICAL REVIEW B, 54 (3), 1703-1710 (1996). 
 Separable dual-space Gaussian pseudopotentials.
 https://doi.org/10.1103/PhysRevB.54.1703

 ESSMANN, U; PERERA, L; BERKOWITZ, ML; DARDEN, T; LEE, H; PEDERSEN, LG. 
 JOURNAL OF CHEMICAL PHYSICS, 103 (19), 8577-8593 (1995). 
 A SMOOTH PARTICLE MESH EWALD METHOD.
 https://doi.org/10.1063/1.470117

 BLOCHL, PE. 
 JOURNAL OF CHEMICAL PHYSICS, 103 (17), 7422-7428 (1995). 
 ELECTROSTATIC DECOUPLING OF PERIODIC IMAGES OF PLANE-WAVE-EXPANDED
 DENSITIES AND DERIVED ATOMIC POINT CHARGES.
 https://doi.org/10.1063/1.470314

 BECKE, AD. PHYSICAL REVIEW A, 38 (6), 3098-3100 (1988). 
 DENSITY-FUNCTIONAL EXCHANGE-ENERGY APPROXIMATION WITH CORRECT
 ASYMPTOTIC-BEHAVIOR.
 https://doi.org/10.1103/PhysRevA.38.3098

 LEE, CT; YANG, WT; PARR, RG. 
 PHYSICAL REVIEW B, 37 (2), 785-789 (1988). 
 DEVELOPMENT OF THE COLLE-SALVETTI CORRELATION-ENERGY FORMULA INTO A
 FUNCTIONAL OF THE ELECTRON-DENSITY.
 https://doi.org/10.1103/PhysRevB.37.785

 VOSKO, SH; WILK, L; NUSAIR, M. 
 CANADIAN JOURNAL OF PHYSICS, 58 (8), 1200-1211 (1980). 
 ACCURATE SPIN-DEPENDENT ELECTRON LIQUID CORRELATION ENERGIES FOR LOCAL
 SPIN-DENSITY CALCULATIONS - A CRITICAL ANALYSIS.
 https://doi.org/10.1139/p80-159


 -------------------------------------------------------------------------------
 -                                                                             -
 -                                T I M I N G                                  -
 -                                                                             -
 -------------------------------------------------------------------------------
 SUBROUTINE                       CALLS  ASD         SELF TIME        TOTAL TIME
                                MAXIMUM       AVERAGE  MAXIMUM  AVERAGE  MAXIMUM
 CP2K                                 1  1.0    0.024    0.035  170.602  170.603
 qs_mol_dyn_low                       1  2.0    0.003    0.003  168.750  168.824
 velocity_verlet                      6  3.0    0.002    0.002  149.415  149.434
 qs_forces                            7  3.9    0.001    0.001   68.715   68.720
 qs_energies                          7  4.9    0.000    0.001   59.350   59.356
 scf_env_do_scf                       7  5.9    0.000    0.001   56.541   56.541
 rebuild_ks_matrix                   61  8.6    0.000    0.000   52.405   52.423
 qs_ks_build_kohn_sham_matrix        61  9.6    0.011    0.012   52.404   52.423
 qmmm_forces                          7  3.9    0.001    0.001   51.610   51.619
 qmmm_forces_with_gaussian            7  4.9    1.770    1.899   50.709   50.922
 qmmm_el_coupling                     7  3.9    0.000    0.000   47.122   47.256
 qmmm_elec_with_gaussian              7  4.9    1.928    2.062   47.116   47.249
 qs_ks_update_qs_env                 61  8.0    0.001    0.001   43.074   43.088
 scf_env_do_scf_inner_loop           54  7.0    0.001    0.003   41.023   41.033
 mp_sum_dm3                          38  5.7   36.652   36.925   36.652   36.925
 pw_transfer                       1297 12.1    0.128    0.144   27.593   28.029
 fft_wrap_pw1pw2                   1079 13.3    0.015    0.019   26.959   27.398
 fft_wrap_pw1pw2_200                685 14.5    2.665    3.008   26.408   26.860
 pw_restrict_s3                      21  5.9    6.191    6.376   21.598   21.765
 fft3d_ps                          1079 15.3   10.472   11.126   20.956   21.546
 qs_vxc_create                       61 10.6    0.001    0.002   21.322   21.325
 xc_vxc_pw_create                    61 11.6    0.435    0.506   21.321   21.324
 hfx_ks_matrix                       61 10.6    0.003    0.003   19.648   19.685
 qmmm_elec_with_gaussian:spline       7  5.9    0.000    0.000   17.459   17.595
 pw_prolongate_s3                    21  6.9    4.948    5.071   17.459   17.595
 init_scf_loop                        7  6.9    0.000    0.000   15.504   15.505
 integrate_four_center               61 11.6    3.868    4.858   14.816   14.854
 qs_rho_update_rho                   61  8.1    0.001    0.001   12.836   12.891
 calculate_rho_elec                  61  9.1    0.154    0.164   12.835   12.890
 pw_integral_ab                    2965  7.5   10.090   10.488   10.266   10.757
 xc_rho_set_and_dset_create          61 12.6    0.518    0.621    9.474   10.289
 mp_alltoall_z22v                  1079 17.3    8.193    9.810    8.193    9.810
 qmmm_elec_with_gaussian_low          7  5.9    0.000    0.000    9.287    9.488
 qs_ks_update_qs_env_forces           7  4.9    0.000    0.000    9.335    9.340
 density_rs2pw                       61 10.1    0.003    0.004    8.314    8.595
 qmmm_elec_gaussian_low_G             7  6.9    8.190    8.383    8.190    8.383
 qmmm_force_with_gaussian_low         7  5.9    0.000    0.000    7.967    8.086
 rs_pw_transfer                     530 11.9    0.011    0.012    6.766    7.164
 pw_zero                           2443  7.3    6.559    6.870    6.559    6.870
 sum_up_and_integrate                61 10.6    0.086    0.106    6.590    6.608
 qmmm_forces_gaussian_low_G           7  6.9    6.476    6.568    6.476    6.568
 integrate_v_rspace                  61 11.6    0.002    0.002    6.504    6.531
 yz_to_x                            502 15.8    0.865    0.971    5.155    6.442
 pw_axpy                           1900  8.3    6.128    6.318    6.128    6.318
 potential_pw2rs                     61 12.6    0.007    0.007    6.041    6.070
 mp_sync                            427 13.1    4.848    5.651    4.848    5.651
 x_to_yz                            577 16.6    1.400    1.592    5.302    5.501
 derivatives_four_center              7  8.9    0.022    0.305    4.824    4.825
 grid_collocate_task_list            61 10.1    4.238    4.598    4.238    4.598
 derivatives_four_center_main         7  9.9    0.013    0.107    4.444    4.451
 integrate_four_center_main          61 12.6    0.021    0.030    4.203    4.392
 integrate_four_center_bin         4448 13.6    4.182    4.371    4.182    4.371
 derivatives_four_center_bin        995 10.8    4.231    4.298    4.231    4.298
 add_fine2coarse                     21  6.9    3.827    3.859    3.827    3.859
 add_coarse2fine                     21  7.9    3.444    3.489    3.444    3.489
 -------------------------------------------------------------------------------

 The number of warnings for this run is : 7
 
 -------------------------------------------------------------------------------
  **** **** ******  **  PROGRAM ENDED AT                 2021-10-20 17:52:43.775
 ***** ** ***  *** **   PROGRAM RAN ON                                 nid001086
 **    ****   ******    PROGRAM RAN BY                                     hjbio
 ***** **    ** ** **   PROGRAM PROCESS ID                                239688
  **** **  *******  **  PROGRAM STOPPED IN /lus/cls01095/work/d118/d118/hjbio/qm
                                           mm-benchmarking/archer2/CPU/cp2kMD/MQ
                                           AE-B3LYP-large/6STEPS/2NODES/128CPN/4
                                           THREADS
