 DBCSR| CPU Multiplication driver                                           BLAS
 DBCSR| Multrec recursion limit                                              512
 DBCSR| Multiplication stack size                                           1000
 DBCSR| Maximum elements for images                                    UNLIMITED
 DBCSR| Multiplicative factor virtual images                                   1
 DBCSR| Use multiplication densification                                       T
 DBCSR| Multiplication size stacks                                             3
 DBCSR| Use memory pool for CPU allocation                                     F
 DBCSR| Number of 3D layers                                               SINGLE
 DBCSR| Use MPI memory allocation                                              F
 DBCSR| Use RMA algorithm                                                      F
 DBCSR| Use Communication thread                                               T
 DBCSR| Communication thread load                                             87
 DBCSR| MPI: My node id                                                        0
 DBCSR| MPI: Number of nodes                                                 128
 DBCSR| OMP: Current number of threads                                         1
 DBCSR| OMP: Max number of threads                                             1
 DBCSR| Split modifier for TAS multiplication algorithm                  1.0E+00


  **** **** ******  **  PROGRAM STARTED AT               2021-08-31 14:53:22.281
 ***** ** ***  *** **   PROGRAM STARTED ON                             nid001525
 **    ****   ******    PROGRAM STARTED BY                                 hjbio
 ***** **    ** ** **   PROGRAM PROCESS ID                                211257
  **** **  *******  **  PROGRAM STARTED IN /lus/cls01095/work/d118/d118/hjbio/qm
                                           mm-benchmarking/archer2/CPU/cp2kMD/CB
                                           D_PHY/6STEPS/1NODES/128CPN/1THREADS

 CP2K| version string:                                          CP2K version 8.2
 CP2K| source code revision number:                                  git:310b7ab
 CP2K| cp2kflags: omp libint fftw3 libxc elpa parallel mpi3 scalapack plumed2   
 CP2K| is freely available from                            https://www.cp2k.org/
 CP2K| Program compiled at                          Thu 10 Jun 17:43:51 BST 2021
 CP2K| Program compiled on                                                 uan01
 CP2K| Program compiled for                                              ARCHER2
 CP2K| Data directory path              /work/d118/d118/hjbio/CP2K/cp2k-8.2/data
 CP2K| Input file name                                          CBD_PHY-cp2k.inp

 GLOBAL| Force Environment number                                              1
 GLOBAL| Basis set file name                                        BASIS_MOLOPT
 GLOBAL| Potential file name                                           POTENTIAL
 GLOBAL| MM Potential file name                                     MM_POTENTIAL
 GLOBAL| Coordinate file name                                        CBD_PHY.pdb
 GLOBAL| Method name                                                        CP2K
 GLOBAL| Project name                                                CBD_PHY-PBE
 GLOBAL| Run type                                                             MD
 GLOBAL| FFT library                                                       FFTW3
 GLOBAL| Diagonalization library                                            ELPA
 GLOBAL| Minimum number of eigenvectors for ELPA usage                        16
 GLOBAL| Orthonormality check for eigenvectors                          DISABLED
 GLOBAL| Matrix multiplication library                                    SCALAP
 GLOBAL| All-to-all communication in single precision                          F
 GLOBAL| FFTs using library dependent lengths                                  F
 GLOBAL| Grid backend                                                       AUTO
 GLOBAL| Global print level                                                  LOW
 GLOBAL| MPI I/O enabled                                                       T
 GLOBAL| Total number of message passing processes                           128
 GLOBAL| Number of threads for this process                                    1
 GLOBAL| This output is from process                                           0
 GLOBAL| CPU model name                          AMD EPYC 7742 64-Core Processor
 GLOBAL| CPUID                                                              1002

 MEMORY| system memory details [Kb]
 MEMORY|                        rank 0           min           max       average
 MEMORY| MemTotal            263568576     263568576     263568576     263568576
 MEMORY| MemFree             237599460     237599460     237599460     237599460
 MEMORY| Buffers                110816        110816        110816        110816
 MEMORY| Cached                4571180       4571180       4571180       4571180
 MEMORY| Slab                  2026284       2026284       2026284       2026284
 MEMORY| SReclaimable           213588        213588        213588        213588
 MEMORY| MemLikelyFree       242495044     242495044     242495044     242495044



                      ************* ******** ***********   
                     ************* **********************  
                     ****     **** ****      ***********   
                     ******** ****  *******     ****       
                     *******  ****   *******   ****        
                     ****     ****       ****  ****        
                     ****     **** **********  ****        
                      ****     **** ********    ****       
                     FRONTIERS IN SIMULATION TECHNOLOGY    
                                                           
                        C.J. Mundy, S. Balasubramanian,    
                     Ken Bagchi, J. Hutter, Ari Seitsonen  
                      IFW Kuo, T. Laino, J. VandeVondele   
                                 Version 1.0               

                                                           


 EWALD| Summation is done by:                                               SPME
 EWALD| Alpha parameter [       ANGSTROM^-1]                              0.4000
 EWALD| Real Space Cutoff [          ANGSTROM]                            8.4348
 EWALD| G-space max. Miller index                         80        80        80
 EWALD| Spline interpolation order                                             6

 FORCEFIELD| WARNING: A non Critical ForceField parameter is missing! CP2K GOES!
 FORCEFIELD| Non critical parameters are:Urey-Bradley,Torsions,Impropers, Opbends and 1-4
 FORCEFIELD| All missing parameters will not contribute to the potential energy!
 FORCEFIELD| Activate the print key FF_INFO to have a list of missing parameters

 CHARGE_INFO| Total Charge of the Classical System:                    -0.825808

 SPLINE_INFO| Generating 101926 splines for NONBONDED14 interactions 
              Due to 451 different atomic kinds
  ...10192  ...20384  ...30576  ...40768  ...50960  ...61152  ...71344  ...81536  ...91728  ...101920
 SPLINE_INFO| Number of unique splines computed:            301
 SPLINE_INFO| Done

 SPLINE_INFO| Generating 101926 splines for NONBONDED interactions 
              Due to 451 different atomic kinds
  ...10192  ...20384  ...30576  ...40768  ...50960  ...61152  ...71344  ...81536  ...91728  ...101920
 SPLINE_INFO| Number of unique splines computed:            301
 SPLINE_INFO| Done

 *******************************************************************************
 *******************************************************************************
 **                                                                           **
 **     #####                         ##              ##                      **
 **    ##   ##            ##          ##              ##                      **
 **   ##     ##                       ##            ######                    **
 **   ##     ##  ##   ##  ##   #####  ##  ##   ####   ##    #####    #####    **
 **   ##     ##  ##   ##  ##  ##      ## ##   ##      ##   ##   ##  ##   ##   **
 **   ##  ## ##  ##   ##  ##  ##      ####     ###    ##   ######   ######    **
 **    ##  ###   ##   ##  ##  ##      ## ##      ##   ##   ##       ##        **
 **     #######   #####   ##   #####  ##  ##  ####    ##    #####   ##        **
 **           ##                                                    ##        **
 **                                                                           **
 **                                                ... make the atoms dance   **
 **                                                                           **
 **            Copyright (C) by CP2K developers group (2000-2021)             **
 **                      J. Chem. Phys. 152, 194103 (2020)                    **
 **                                                                           **
 *******************************************************************************


 TOTAL NUMBERS AND MAXIMUM NUMBERS

  Total number of            - Atomic kinds:                                   5
                             - Atoms:                                         68
                             - Shell sets:                                    68
                             - Shells:                                       274
                             - Primitive Cartesian functions:                476
                             - Cartesian basis functions:                    655
                             - Spherical basis functions:                    620

  Maximum angular momentum of- Orbital basis functions:                        2
                             - Local part of the GTH pseudopotential:          2
                             - Non-local part of the GTH pseudopotential:      0


 SCF PARAMETERS         Density guess:                                   RESTART
                        --------------------------------------------------------
                        max_scf:                                             300
                        max_scf_history:                                       0
                        max_diis:                                              4
                        --------------------------------------------------------
                        eps_scf:                                        1.00E-06
                        eps_scf_history:                                0.00E+00
                        eps_diis:                                       1.00E-01
                        eps_eigval:                                     1.00E-05
                        --------------------------------------------------------
                        level_shift [a.u.]:                                 0.00
                        --------------------------------------------------------
                        No outer SCF

 *******************************************************************************
 *******************************************************************************
 **                                                                           **
 **             #######  ##     ## ##     ## ##     ##                        **
 **            ##     ## ###   ### ###   ### ###   ###                        **
 **            ##     ## #### #### #### #### #### ####                        **
 **            ##     ## ## ### ## ## ### ## ## ### ##                        **
 **            ##  ## ## ##     ## ##     ## ##     ##                        **
 **            ##    ##  ##     ## ##     ## ##     ##  T.Laino and F.Mohamed **
 **             ##### ## ##     ## ##     ## ##     ##  2005 - 2015           **
 **                                                                           **
 **                                                     Calculation Started.. **
 *******************************************************************************
 *******************************************************************************

 MD_PAR| Molecular dynamics protocol (MD input parameters)
 MD_PAR| Ensemble type                                                       NVE
 MD_PAR| Number of time steps                                                  6
 MD_PAR| Time step [fs]                                                 1.000000
 MD_PAR| Temperature [K]                                              300.000000
 MD_PAR| Temperature tolerance [K]                                      0.000000
 MD_PAR| Print MD information every                                    1 step(s)
 MD_PAR| File type   Print frequency [steps]                          File names
 MD_PAR| Coordinates          1                            CBD_PHY-PBE-pos-1.xyz
 MD_PAR| Velocities           1                            CBD_PHY-PBE-vel-1.xyz
 MD_PAR| Energies             1                               CBD_PHY-PBE-1.ener
 MD_PAR| Dump                20                            CBD_PHY-PBE-1.restart

 ROT| Rotational analysis information
 ROT| Principal axes and moments of inertia [a.u.]
 ROT|                           1                   2                   3
 ROT| Eigenvalues      1.56283164001E+13   1.56407408488E+13   1.56663418804E+13
 ROT|      x              0.901637047331     -0.018153263569      0.432112362589
 ROT|      y              0.323714777231      0.690893927917     -0.646431994388
 ROT|      z             -0.286808957117      0.722728191915      0.628812040859
 ROT| Number of rotovibrational vectors                                        6

 DOF| Calculation of degrees of freedom
 DOF| Number of atoms                                                     167923
 DOF| Number of intramolecular constraints                                     0
 DOF| Number of intermolecular constraints                                     0
 DOF| Invariants (translations + rotations)                                    3
 DOF| Degrees of freedom                                                  503766

 DOF| Restraints information
 DOF| Number of intramolecular restraints                                      0
 DOF| Number of intermolecular restraints                                      0

 MD_VEL| Velocities initialization
 MD_VEL| Initial temperature [K]                                      300.000000
 MD_VEL| COM velocity            -0.0000000000     0.0000000000     0.0000000000

  Translating the system in order to center the QM fragment in the QM box.

 Number of electrons:                                                        180
 Number of occupied orbitals:                                                 90
 Number of molecular orbitals:                                                90

 Number of orbital functions:                                                620
 Number of independent orbital functions:                                    620

 Extrapolation method: initial_guess


 SCF WAVEFUNCTION OPTIMIZATION

  ----------------------------------- OT ---------------------------------------
  Minimizer      : DIIS                : direct inversion
                                         in the iterative subspace
                                         using   7 DIIS vectors
                                         safer DIIS on
  Preconditioner : FULL_ALL            : diagonalization, state selective
  Precond_solver : DEFAULT
  stepsize       :    0.15000000                  energy_gap     :    0.08000000
  eps_taylor     :   0.10000E-15                  max_taylor     :             4
  ----------------------------------- OT ---------------------------------------

  Step     Update method      Time    Convergence         Total energy    Change
  ------------------------------------------------------------------------------
  Decoupling Energy:                                               0.0370860478
  Recoupling Energy:                                              -0.0063743250
     1 OT DIIS     0.15E+00    1.2     0.00001021      -256.0303947307 -2.56E+02
  Decoupling Energy:                                               0.0370861868
  Recoupling Energy:                                              -0.0063743257
     2 OT DIIS     0.15E+00    1.4     0.00000510      -256.0303952932 -5.63E-07
  Decoupling Energy:                                               0.0370855967
  Recoupling Energy:                                              -0.0063743192
     3 OT DIIS     0.15E+00    1.4     0.00000563      -256.0303953566 -6.34E-08
  Decoupling Energy:                                               0.0370861480
  Recoupling Energy:                                              -0.0063743254
     4 OT DIIS     0.15E+00    1.4     0.00000160      -256.0303954144 -5.78E-08
  Decoupling Energy:                                               0.0370859312
  Recoupling Energy:                                              -0.0063743228
     5 OT DIIS     0.15E+00    1.4     0.00000021      -256.0303954186 -4.15E-09

  *** SCF run converged in     5 steps ***


  Electronic density on regular grids:       -179.9999999994        0.0000000006
  Core density on regular grids:              180.9999999999       -0.0000000001
  Total charge density on r-space grids:        1.0000000005
  Total charge density g-space grids:           1.0000000005

  Overlap energy of the core charge distribution:               0.00001951532734
  Self energy of the core charge distribution:               -615.71576003586028
  Core Hamiltonian energy:                                    191.69815043189703
  Hartree energy:                                             247.57404800385001
  Exchange-correlation energy:                                -79.63275546513532
  QM/MM Electrostatic energy:                                   0.04590213136042

  Total energy:                                              -256.03039541856072
  Decoupling Energy:                                               0.0370859744
  Recoupling Energy:                                              -0.0063743233

 ENERGY| Total FORCE_EVAL ( QMMM ) energy [a.u.]:          -1088.195362349199968

 MD_INI| MD initialization
 MD_INI| Potential energy [hartree]                          -0.108819536235E+04
 MD_INI| Total kinetic energy [hartree]                       0.239300084734E+03
 MD_INI| QM kinetic energy [hartree]                          0.106639360339E+00
 MD_INI| Total temperature [K]                                        300.000000
 MD_INI| QM temperature [K]                                           330.137318
 MD_INI| Cell volume [bohr^3]                                 1.137316355424E+07
 MD_INI| Cell volume [ang^3]                                  1.685328937712E+06
 MD_INI| Cell lengths [bohr]      2.24884969E+02  2.24884969E+02  2.24884969E+02
 MD_INI| Cell lengths [ang]       1.19004000E+02  1.19004000E+02  1.19004000E+02
 MD_INI| Cell angles [deg]        9.00000000E+01  9.00000000E+01  9.00000000E+01

  Translating the system in order to center the QM fragment in the QM box.

 Number of electrons:                                                        180
 Number of occupied orbitals:                                                 90
 Number of molecular orbitals:                                                90

 Number of orbital functions:                                                620
 Number of independent orbital functions:                                    620

 Extrapolation method: ASPC


 SCF WAVEFUNCTION OPTIMIZATION

  ----------------------------------- OT ---------------------------------------
  Minimizer      : DIIS                : direct inversion
                                         in the iterative subspace
                                         using   7 DIIS vectors
                                         safer DIIS on
  Preconditioner : FULL_ALL            : diagonalization, state selective
  Precond_solver : DEFAULT
  stepsize       :    0.15000000                  energy_gap     :    0.08000000
  eps_taylor     :   0.10000E-15                  max_taylor     :             4
  ----------------------------------- OT ---------------------------------------

  Step     Update method      Time    Convergence         Total energy    Change
  ------------------------------------------------------------------------------
  Decoupling Energy:                                               0.0371104025
  Recoupling Energy:                                              -0.0063745549
     1 OT DIIS     0.15E+00    1.1     0.00092537      -255.8029313637 -2.56E+02
  Decoupling Energy:                                               0.0371210906
  Recoupling Energy:                                              -0.0063746935
     2 OT DIIS     0.15E+00    1.4     0.00041587      -255.8072240295 -4.29E-03
  Decoupling Energy:                                               0.0371277550
  Recoupling Energy:                                              -0.0063747955
     3 OT DIIS     0.15E+00    1.4     0.00037228      -255.8077199029 -4.96E-04
  Decoupling Energy:                                               0.0371212852
  Recoupling Energy:                                              -0.0063746999
     4 OT DIIS     0.15E+00    1.4     0.00014957      -255.8079919806 -2.72E-04
  Decoupling Energy:                                               0.0371369487
  Recoupling Energy:                                              -0.0063748859
     5 OT DIIS     0.15E+00    1.4     0.00004923      -255.8080296584 -3.77E-05
  Decoupling Energy:                                               0.0371276795
  Recoupling Energy:                                              -0.0063747811
     6 OT DIIS     0.15E+00    1.4     0.00001779      -255.8080336511 -3.99E-06
  Decoupling Energy:                                               0.0371313106
  Recoupling Energy:                                              -0.0063748226
     7 OT DIIS     0.15E+00    1.4     0.00000735      -255.8080341993 -5.48E-07
  Decoupling Energy:                                               0.0371301428
  Recoupling Energy:                                              -0.0063748095
     8 OT DIIS     0.15E+00    1.4     0.00000183      -255.8080343005 -1.01E-07
  Decoupling Energy:                                               0.0371306206
  Recoupling Energy:                                              -0.0063748146
     9 OT DIIS     0.15E+00    1.4     0.00000127      -255.8080343063 -5.75E-09
  Decoupling Energy:                                               0.0371304192
  Recoupling Energy:                                              -0.0063748126
    10 OT DIIS     0.15E+00    1.4     0.00000040      -255.8080343091 -2.80E-09

  *** SCF run converged in    10 steps ***


  Electronic density on regular grids:       -180.0000000001       -0.0000000001
  Core density on regular grids:              180.9999999999       -0.0000000001
  Total charge density on r-space grids:        0.9999999998
  Total charge density g-space grids:           0.9999999998

  Overlap energy of the core charge distribution:               0.00002367605301
  Self energy of the core charge distribution:               -615.71576003586028
  Core Hamiltonian energy:                                    191.83715153453966
  Hartree energy:                                             247.48551243213100
  Exchange-correlation energy:                                -79.67126389339548
  QM/MM Electrostatic energy:                                   0.25630197742928

  Total energy:                                              -255.80803430910279
  Decoupling Energy:                                               0.0371304353
  Recoupling Energy:                                              -0.0063748127

 ENERGY| Total FORCE_EVAL ( QMMM ) energy [a.u.]:          -1060.045711405064139

 MD| ***************************************************************************
 MD| Step number                                                               1
 MD| Time [fs]                                                          1.000000
 MD| Conserved quantity [hartree]                            -0.841545612455E+03
 MD| ---------------------------------------------------------------------------
 MD|                                          Instantaneous             Averages
 MD| CPU time per MD step [s]                    110.032007           110.032007
 MD| Energy drift per atom [K]           0.138208460318E+02   0.000000000000E+00
 MD| Potential energy [hartree]         -0.106004571141E+04  -0.106004571141E+04
 MD| Total kinetic energy [hartree]      0.218500098950E+03   0.218500098950E+03
 MD| QM kinetic energy [hartree]         0.120537399455E+00   0.120537399455E+00
 MD| Total temperature [K]                       273.923972           273.923972
 MD| QM temperature [K]                          373.163283           373.163283
 MD| ***************************************************************************

  Translating the system in order to center the QM fragment in the QM box.

 Number of electrons:                                                        180
 Number of occupied orbitals:                                                 90
 Number of molecular orbitals:                                                90

 Number of orbital functions:                                                620
 Number of independent orbital functions:                                    620

 Extrapolation method: ASPC


 SCF WAVEFUNCTION OPTIMIZATION

  ----------------------------------- OT ---------------------------------------
  Minimizer      : DIIS                : direct inversion
                                         in the iterative subspace
                                         using   7 DIIS vectors
                                         safer DIIS on
  Preconditioner : FULL_ALL            : diagonalization, state selective
  Precond_solver : DEFAULT
  stepsize       :    0.15000000                  energy_gap     :    0.08000000
  eps_taylor     :   0.10000E-15                  max_taylor     :             4
  ----------------------------------- OT ---------------------------------------

  Step     Update method      Time    Convergence         Total energy    Change
  ------------------------------------------------------------------------------
  Decoupling Energy:                                               0.0371782649
  Recoupling Energy:                                              -0.0063753295
     1 OT DIIS     0.15E+00    1.1     0.00034569      -255.4446723064 -2.55E+02
  Decoupling Energy:                                               0.0371762834
  Recoupling Energy:                                              -0.0063753051
     2 OT DIIS     0.15E+00    1.4     0.00014529      -255.4452859380 -6.14E-04
  Decoupling Energy:                                               0.0371731700
  Recoupling Energy:                                              -0.0063752666
     3 OT DIIS     0.15E+00    1.4     0.00012811      -255.4453579795 -7.20E-05
  Decoupling Energy:                                               0.0371770310
  Recoupling Energy:                                              -0.0063753178
     4 OT DIIS     0.15E+00    1.4     0.00005544      -255.4453891695 -3.12E-05
  Decoupling Energy:                                               0.0371727801
  Recoupling Energy:                                              -0.0063752653
     5 OT DIIS     0.15E+00    1.4     0.00001634      -255.4453942993 -5.13E-06
  Decoupling Energy:                                               0.0371753987
  Recoupling Energy:                                              -0.0063752960
     6 OT DIIS     0.15E+00    1.4     0.00000629      -255.4453947492 -4.50E-07
  Decoupling Energy:                                               0.0371743569
  Recoupling Energy:                                              -0.0063752840
     7 OT DIIS     0.15E+00    1.4     0.00000206      -255.4453948239 -7.47E-08
  Decoupling Energy:                                               0.0371747656
  Recoupling Energy:                                              -0.0063752885
     8 OT DIIS     0.15E+00    1.4     0.00000090      -255.4453948311 -7.18E-09

  *** SCF run converged in     8 steps ***


  Electronic density on regular grids:       -180.0000000008       -0.0000000008
  Core density on regular grids:              180.9999999999       -0.0000000001
  Total charge density on r-space grids:        0.9999999990
  Total charge density g-space grids:           0.9999999990

  Overlap energy of the core charge distribution:               0.00004639440286
  Self energy of the core charge distribution:               -615.71576003586028
  Core Hamiltonian energy:                                    191.92051756574637
  Hartree energy:                                             247.45180559412418
  Exchange-correlation energy:                                -79.68728052979829
  QM/MM Electrostatic energy:                                   0.58527618031469

  Total energy:                                              -255.44539483107050
  Decoupling Energy:                                               0.0371745952
  Recoupling Energy:                                              -0.0063752867

 ENERGY| Total FORCE_EVAL ( QMMM ) energy [a.u.]:          -1061.319246073418071

 MD| ***************************************************************************
 MD| Step number                                                               2
 MD| Time [fs]                                                          2.000000
 MD| Conserved quantity [hartree]                            -0.842902035493E+03
 MD| ---------------------------------------------------------------------------
 MD|                                          Instantaneous             Averages
 MD| CPU time per MD step [s]                     55.304889            82.668448
 MD| Energy drift per atom [K]           0.112701292916E+02   0.563506464581E+01
 MD| Potential energy [hartree]         -0.106131924607E+04  -0.106068247874E+04
 MD| Total kinetic energy [hartree]      0.218417210581E+03   0.218458654765E+03
 MD| QM kinetic energy [hartree]         0.111218646800E+00   0.115878023127E+00
 MD| Total temperature [K]                       273.820058           273.872015
 MD| QM temperature [K]                          344.314010           358.738647
 MD| ***************************************************************************

  Translating the system in order to center the QM fragment in the QM box.

 Number of electrons:                                                        180
 Number of occupied orbitals:                                                 90
 Number of molecular orbitals:                                                90

 Number of orbital functions:                                                620
 Number of independent orbital functions:                                    620

 Extrapolation method: ASPC


 SCF WAVEFUNCTION OPTIMIZATION

  ----------------------------------- OT ---------------------------------------
  Minimizer      : DIIS                : direct inversion
                                         in the iterative subspace
                                         using   7 DIIS vectors
                                         safer DIIS on
  Preconditioner : FULL_ALL            : diagonalization, state selective
  Precond_solver : DEFAULT
  stepsize       :    0.15000000                  energy_gap     :    0.08000000
  eps_taylor     :   0.10000E-15                  max_taylor     :             4
  ----------------------------------- OT ---------------------------------------

  Step     Update method      Time    Convergence         Total energy    Change
  ------------------------------------------------------------------------------
  Decoupling Energy:                                               0.0372093686
  Recoupling Energy:                                              -0.0063756581
     1 OT DIIS     0.15E+00    1.1     0.00068288      -254.9647888735 -2.55E+02
  Decoupling Energy:                                               0.0372203239
  Recoupling Energy:                                              -0.0063757651
     2 OT DIIS     0.15E+00    1.4     0.00025903      -254.9670248347 -2.24E-03
  Decoupling Energy:                                               0.0372193634
  Recoupling Energy:                                              -0.0063757535
     3 OT DIIS     0.15E+00    1.4     0.00015274      -254.9672853833 -2.61E-04
  Decoupling Energy:                                               0.0372147276
  Recoupling Energy:                                              -0.0063757082
     4 OT DIIS     0.15E+00    1.4     0.00007836      -254.9673487019 -6.33E-05
  Decoupling Energy:                                               0.0372155263
  Recoupling Energy:                                              -0.0063757148
     5 OT DIIS     0.15E+00    1.4     0.00002591      -254.9673601207 -1.14E-05
  Decoupling Energy:                                               0.0372158098
  Recoupling Energy:                                              -0.0063757173
     6 OT DIIS     0.15E+00    1.4     0.00001297      -254.9673612313 -1.11E-06
  Decoupling Energy:                                               0.0372161516
  Recoupling Energy:                                              -0.0063757209
     7 OT DIIS     0.15E+00    1.4     0.00000392      -254.9673615304 -2.99E-07
  Decoupling Energy:                                               0.0372156716
  Recoupling Energy:                                              -0.0063757160
     8 OT DIIS     0.15E+00    1.4     0.00000141      -254.9673615568 -2.64E-08
  Decoupling Energy:                                               0.0372158579
  Recoupling Energy:                                              -0.0063757180
     9 OT DIIS     0.15E+00    1.4     0.00000048      -254.9673615610 -4.19E-09

  *** SCF run converged in     9 steps ***


  Electronic density on regular grids:       -180.0000000026       -0.0000000026
  Core density on regular grids:              180.9999999999       -0.0000000001
  Total charge density on r-space grids:        0.9999999973
  Total charge density g-space grids:           0.9999999973

  Overlap energy of the core charge distribution:               0.00004419926802
  Self energy of the core charge distribution:               -615.71576003586028
  Core Hamiltonian energy:                                    191.78835509535054
  Hartree energy:                                             247.54137729870880
  Exchange-correlation energy:                                -79.64149443205967
  QM/MM Electrostatic energy:                                   1.06011631359478

  Total energy:                                              -254.96736156099780
  Decoupling Energy:                                               0.0372157866
  Recoupling Energy:                                              -0.0063757172

 ENERGY| Total FORCE_EVAL ( QMMM ) energy [a.u.]:          -1082.129011333757489

 MD| ***************************************************************************
 MD| Step number                                                               3
 MD| Time [fs]                                                          3.000000
 MD| Conserved quantity [hartree]                            -0.846476809067E+03
 MD| ---------------------------------------------------------------------------
 MD|                                          Instantaneous             Averages
 MD| CPU time per MD step [s]                     57.371596            74.236164
 MD| Energy drift per atom [K]           0.454786452340E+01   0.527266460501E+01
 MD| Potential energy [hartree]         -0.108212901133E+04  -0.106783132294E+04
 MD| Total kinetic energy [hartree]      0.235652202267E+03   0.224189837266E+03
 MD| QM kinetic energy [hartree]         0.116444682000E+00   0.116066909418E+00
 MD| Total temperature [K]                       295.426810           281.056947
 MD| QM temperature [K]                          360.492926           359.323406
 MD| ***************************************************************************

  Translating the system in order to center the QM fragment in the QM box.

 Number of electrons:                                                        180
 Number of occupied orbitals:                                                 90
 Number of molecular orbitals:                                                90

 Number of orbital functions:                                                620
 Number of independent orbital functions:                                    620

 Extrapolation method: ASPC


 SCF WAVEFUNCTION OPTIMIZATION

  ----------------------------------- OT ---------------------------------------
  Minimizer      : DIIS                : direct inversion
                                         in the iterative subspace
                                         using   7 DIIS vectors
                                         safer DIIS on
  Preconditioner : FULL_ALL            : diagonalization, state selective
  Precond_solver : DEFAULT
  stepsize       :    0.15000000                  energy_gap     :    0.08000000
  eps_taylor     :   0.10000E-15                  max_taylor     :             4
  ----------------------------------- OT ---------------------------------------

  Step     Update method      Time    Convergence         Total energy    Change
  ------------------------------------------------------------------------------
  Decoupling Energy:                                               0.0372540981
  Recoupling Energy:                                              -0.0063761081
     1 OT DIIS     0.15E+00    1.1     0.00024459      -254.4113405057 -2.54E+02
  Decoupling Energy:                                               0.0372507590
  Recoupling Energy:                                              -0.0063760834
     2 OT DIIS     0.15E+00    1.4     0.00009754      -254.4116522324 -3.12E-04
  Decoupling Energy:                                               0.0372523112
  Recoupling Energy:                                              -0.0063760938
     3 OT DIIS     0.15E+00    1.4     0.00006294      -254.4116943783 -4.21E-05
  Decoupling Energy:                                               0.0372487210
  Recoupling Energy:                                              -0.0063760616
     4 OT DIIS     0.15E+00    1.4     0.00002077      -254.4117050289 -1.07E-05
  Decoupling Energy:                                               0.0372498214
  Recoupling Energy:                                              -0.0063760714
     5 OT DIIS     0.15E+00    1.4     0.00000699      -254.4117059472 -9.18E-07
  Decoupling Energy:                                               0.0372497343
  Recoupling Energy:                                              -0.0063760707
     6 OT DIIS     0.15E+00    1.4     0.00000424      -254.4117060209 -7.37E-08
  Decoupling Energy:                                               0.0372496961
  Recoupling Energy:                                              -0.0063760701
     7 OT DIIS     0.15E+00    1.4     0.00000103      -254.4117060509 -3.00E-08
  Decoupling Energy:                                               0.0372497534
  Recoupling Energy:                                              -0.0063760708
     8 OT DIIS     0.15E+00    1.4     0.00000046      -254.4117060527 -1.87E-09

  *** SCF run converged in     8 steps ***


  Electronic density on regular grids:       -179.9999999994        0.0000000006
  Core density on regular grids:              180.9999999999       -0.0000000001
  Total charge density on r-space grids:        1.0000000005
  Total charge density g-space grids:           1.0000000005

  Overlap energy of the core charge distribution:               0.00001948738711
  Self energy of the core charge distribution:               -615.71576003586028
  Core Hamiltonian energy:                                    191.48986428641746
  Hartree energy:                                             247.72017573593973
  Exchange-correlation energy:                                -79.55045540592293
  QM/MM Electrostatic energy:                                   1.64444987930381

  Total energy:                                              -254.41170605273510
  Decoupling Energy:                                               0.0372497052
  Recoupling Energy:                                              -0.0063760703

 ENERGY| Total FORCE_EVAL ( QMMM ) energy [a.u.]:          -1079.794214257833801

 MD| ***************************************************************************
 MD| Step number                                                               4
 MD| Time [fs]                                                          4.000000
 MD| Conserved quantity [hartree]                            -0.842197688598E+03
 MD| ---------------------------------------------------------------------------
 MD|                                          Instantaneous             Averages
 MD| CPU time per MD step [s]                     55.538965            69.561864
 MD| Energy drift per atom [K]           0.125946345276E+02   0.710315708565E+01
 MD| Potential energy [hartree]         -0.107979421426E+04  -0.107082204577E+04
 MD| Total kinetic energy [hartree]      0.237596525660E+03   0.227541509364E+03
 MD| QM kinetic energy [hartree]         0.144133271807E+00   0.123083500015E+00
 MD| Total temperature [K]                       297.864323           285.258791
 MD| QM temperature [K]                          446.212090           381.045577
 MD| ***************************************************************************

  Translating the system in order to center the QM fragment in the QM box.

 Number of electrons:                                                        180
 Number of occupied orbitals:                                                 90
 Number of molecular orbitals:                                                90

 Number of orbital functions:                                                620
 Number of independent orbital functions:                                    620

 Extrapolation method: ASPC


 SCF WAVEFUNCTION OPTIMIZATION

  ----------------------------------- OT ---------------------------------------
  Minimizer      : DIIS                : direct inversion
                                         in the iterative subspace
                                         using   7 DIIS vectors
                                         safer DIIS on
  Preconditioner : FULL_ALL            : diagonalization, state selective
  Precond_solver : DEFAULT
  stepsize       :    0.15000000                  energy_gap     :    0.08000000
  eps_taylor     :   0.10000E-15                  max_taylor     :             4
  ----------------------------------- OT ---------------------------------------

  Step     Update method      Time    Convergence         Total energy    Change
  ------------------------------------------------------------------------------
  Decoupling Energy:                                               0.0372779316
  Recoupling Energy:                                              -0.0063763730
     1 OT DIIS     0.15E+00    1.1     0.00031457      -253.8151268526 -2.54E+02
  Decoupling Energy:                                               0.0372689413
  Recoupling Energy:                                              -0.0063762905
     2 OT DIIS     0.15E+00    1.4     0.00011950      -253.8156456123 -5.19E-04
  Decoupling Energy:                                               0.0372686083
  Recoupling Energy:                                              -0.0063762777
     3 OT DIIS     0.15E+00    1.4     0.00008760      -253.8157104587 -6.48E-05
  Decoupling Energy:                                               0.0372698989
  Recoupling Energy:                                              -0.0063762979
     4 OT DIIS     0.15E+00    1.4     0.00004076      -253.8157261328 -1.57E-05
  Decoupling Energy:                                               0.0372685497
  Recoupling Energy:                                              -0.0063762803
     5 OT DIIS     0.15E+00    1.4     0.00001308      -253.8157290632 -2.93E-06
  Decoupling Energy:                                               0.0372701700
  Recoupling Energy:                                              -0.0063762991
     6 OT DIIS     0.15E+00    1.4     0.00000663      -253.8157293231 -2.60E-07
  Decoupling Energy:                                               0.0372690169
  Recoupling Energy:                                              -0.0063762862
     7 OT DIIS     0.15E+00    1.4     0.00000161      -253.8157293952 -7.20E-08
  Decoupling Energy:                                               0.0372694544
  Recoupling Energy:                                              -0.0063762910
     8 OT DIIS     0.15E+00    1.4     0.00000063      -253.8157293998 -4.65E-09

  *** SCF run converged in     8 steps ***


  Electronic density on regular grids:       -180.0000000006       -0.0000000006
  Core density on regular grids:              180.9999999999       -0.0000000001
  Total charge density on r-space grids:        0.9999999992
  Total charge density g-space grids:           0.9999999992

  Overlap energy of the core charge distribution:               0.00001460848498
  Self energy of the core charge distribution:               -615.71576003586028
  Core Hamiltonian energy:                                    191.25359589019115
  Hartree energy:                                             247.87426407086238
  Exchange-correlation energy:                                -79.47483493959599
  QM/MM Electrostatic energy:                                   2.24699100611041

  Total energy:                                              -253.81572939980731
  Decoupling Energy:                                               0.0372693262
  Recoupling Energy:                                              -0.0063762896

 ENERGY| Total FORCE_EVAL ( QMMM ) energy [a.u.]:          -1094.385760856238448

 MD| ***************************************************************************
 MD| Step number                                                               5
 MD| Time [fs]                                                          5.000000
 MD| Conserved quantity [hartree]                            -0.848473425790E+03
 MD| ---------------------------------------------------------------------------
 MD|                                          Instantaneous             Averages
 MD| CPU time per MD step [s]                     55.916520            66.832795
 MD| Energy drift per atom [K]           0.793280918211E+00   0.584118185216E+01
 MD| Potential energy [hartree]         -0.109438576086E+04  -0.107553478879E+04
 MD| Total kinetic energy [hartree]      0.245912335066E+03   0.231215674505E+03
 MD| QM kinetic energy [hartree]         0.151887287398E+00   0.128844257492E+00
 MD| Total temperature [K]                       308.289488           289.864930
 MD| QM temperature [K]                          470.217203           398.879902
 MD| ***************************************************************************

  Translating the system in order to center the QM fragment in the QM box.

 Number of electrons:                                                        180
 Number of occupied orbitals:                                                 90
 Number of molecular orbitals:                                                90

 Number of orbital functions:                                                620
 Number of independent orbital functions:                                    620

 Extrapolation method: ASPC


 SCF WAVEFUNCTION OPTIMIZATION

  ----------------------------------- OT ---------------------------------------
  Minimizer      : DIIS                : direct inversion
                                         in the iterative subspace
                                         using   7 DIIS vectors
                                         safer DIIS on
  Preconditioner : FULL_ALL            : diagonalization, state selective
  Precond_solver : DEFAULT
  stepsize       :    0.15000000                  energy_gap     :    0.08000000
  eps_taylor     :   0.10000E-15                  max_taylor     :             4
  ----------------------------------- OT ---------------------------------------

  Step     Update method      Time    Convergence         Total energy    Change
  ------------------------------------------------------------------------------
  Decoupling Energy:                                               0.0372763729
  Recoupling Energy:                                              -0.0063764058
     1 OT DIIS     0.15E+00    1.1     0.00016794      -253.2647012028 -2.53E+02
  Decoupling Energy:                                               0.0372754172
  Recoupling Energy:                                              -0.0063763916
     2 OT DIIS     0.15E+00    1.4     0.00008151      -253.2648266551 -1.25E-04
  Decoupling Energy:                                               0.0372720776
  Recoupling Energy:                                              -0.0063763537
     3 OT DIIS     0.15E+00    1.4     0.00005932      -253.2648437275 -1.71E-05
  Decoupling Energy:                                               0.0372780958
  Recoupling Energy:                                              -0.0063764225
     4 OT DIIS     0.15E+00    1.4     0.00003331      -253.2648506950 -6.97E-06
  Decoupling Energy:                                               0.0372740410
  Recoupling Energy:                                              -0.0063763747
     5 OT DIIS     0.15E+00    1.4     0.00000856      -253.2648526802 -1.99E-06
  Decoupling Energy:                                               0.0372754817
  Recoupling Energy:                                              -0.0063763917
     6 OT DIIS     0.15E+00    1.4     0.00000426      -253.2648527936 -1.13E-07
  Decoupling Energy:                                               0.0372747314
  Recoupling Energy:                                              -0.0063763834
     7 OT DIIS     0.15E+00    1.4     0.00000106      -253.2648528257 -3.21E-08
  Decoupling Energy:                                               0.0372749185
  Recoupling Energy:                                              -0.0063763853
     8 OT DIIS     0.15E+00    1.4     0.00000034      -253.2648528281 -2.34E-09

  *** SCF run converged in     8 steps ***


  Electronic density on regular grids:       -180.0000000005       -0.0000000005
  Core density on regular grids:              180.9999999999       -0.0000000001
  Total charge density on r-space grids:        0.9999999994
  Total charge density g-space grids:           0.9999999994

  Overlap energy of the core charge distribution:               0.00001414076102
  Self energy of the core charge distribution:               -615.71576003586028
  Core Hamiltonian energy:                                    191.18628294482906
  Hartree energy:                                             247.93014670016314
  Exchange-correlation energy:                                -79.44845300444166
  QM/MM Electrostatic energy:                                   2.78291642648587

  Total energy:                                              -253.26485282806297
  Decoupling Energy:                                               0.0372748699
  Recoupling Energy:                                              -0.0063763848

 ENERGY| Total FORCE_EVAL ( QMMM ) energy [a.u.]:          -1057.420858989453791

 MD| ***************************************************************************
 MD| Step number                                                               6
 MD| Time [fs]                                                          6.000000
 MD| Conserved quantity [hartree]                            -0.842984613536E+03
 MD| ---------------------------------------------------------------------------
 MD|                                          Instantaneous             Averages
 MD| CPU time per MD step [s]                     55.323154            64.914522
 MD| Energy drift per atom [K]           0.111148435205E+02   0.672012546355E+01
 MD| Potential energy [hartree]         -0.105742085899E+04  -0.107251580049E+04
 MD| Total kinetic energy [hartree]      0.214436245453E+03   0.228419102996E+03
 MD| QM kinetic energy [hartree]         0.137235215401E+00   0.130242750477E+00
 MD| Total temperature [K]                       268.829297           286.358991
 MD| QM temperature [K]                          424.856881           403.209399
 MD| ***************************************************************************

 -------------------------------------------------------------------------------
 -                                                                             -
 -                                DBCSR STATISTICS                             -
 -                                                                             -
 -------------------------------------------------------------------------------
 COUNTER                                    TOTAL       BLAS       SMM       ACC
 flops     5 x    26 x    26              1561560     100.0%      0.0%      0.0%
 flops    13 x    26 x    26              4306120     100.0%      0.0%      0.0%
 flops     5 x    32 x    32              4730880     100.0%      0.0%      0.0%
 flops    26 x    26 x    26             10088624     100.0%      0.0%      0.0%
 flops    13 x    32 x    32             13045760     100.0%      0.0%      0.0%
 flops    26 x    26 x    32             24833536     100.0%      0.0%      0.0%
 flops    26 x    32 x    26             24833536     100.0%      0.0%      0.0%
 flops    32 x    26 x    26             24833536     100.0%      0.0%      0.0%
 flops    82 x    26 x    26             31041920     100.0%      0.0%      0.0%
 flops    26 x    26 x    44             41225184     100.0%      0.0%      0.0%
 flops     5 x     5 x    26             51051000     100.0%      0.0%      0.0%
 flops    26 x    26 x    41             51219168     100.0%      0.0%      0.0%
 flops    72 x    26 x    26             54512640     100.0%      0.0%      0.0%
 flops    77 x    26 x    26             58298240     100.0%      0.0%      0.0%
 flops    32 x    32 x    26             61128704     100.0%      0.0%      0.0%
 flops    26 x    32 x    32             61128704     100.0%      0.0%      0.0%
 flops    32 x    26 x    32             61128704     100.0%      0.0%      0.0%
 flops    82 x    26 x    44             70918848     100.0%      0.0%      0.0%
 flops    82 x    26 x    32             76410880     100.0%      0.0%      0.0%
 flops    82 x    32 x    26             76410880     100.0%      0.0%      0.0%
 flops    82 x    26 x    41             88111296     100.0%      0.0%      0.0%
 flops    80 x    26 x    26             90854400     100.0%      0.0%      0.0%
 flops    26 x    26 x    36            101189088     100.0%      0.0%      0.0%
 flops    26 x    32 x    44            101477376     100.0%      0.0%      0.0%
 flops    32 x    26 x    44            101477376     100.0%      0.0%      0.0%
 flops    72 x    26 x    44            124540416     100.0%      0.0%      0.0%
 flops     5 x     5 x    32            125664000     100.0%      0.0%      0.0%
 flops    26 x    32 x    41            126077952     100.0%      0.0%      0.0%
 flops    32 x    26 x    41            126077952     100.0%      0.0%      0.0%
 flops    77 x    26 x    44            133189056     100.0%      0.0%      0.0%
 flops    72 x    26 x    32            134184960     100.0%      0.0%      0.0%
 flops    72 x    32 x    26            134184960     100.0%      0.0%      0.0%
 flops    13 x     5 x    26            136518200     100.0%      0.0%      0.0%
 flops     5 x    13 x    26            136754800     100.0%      0.0%      0.0%
 flops    77 x    26 x    32            143503360     100.0%      0.0%      0.0%
 flops    77 x    32 x    26            143503360     100.0%      0.0%      0.0%
 flops    32 x    32 x    32            150470656     100.0%      0.0%      0.0%
 flops    72 x    26 x    41            154732032     100.0%      0.0%      0.0%
 flops    77 x    26 x    41            165477312     100.0%      0.0%      0.0%
 flops    82 x    26 x    36            174073536     100.0%      0.0%      0.0%
 flops    82 x    32 x    44            174569472     100.0%      0.0%      0.0%
 flops    82 x    32 x    32            188088320     100.0%      0.0%      0.0%
 flops    80 x    26 x    44            207567360     100.0%      0.0%      0.0%
 flops    82 x    32 x    41            216889344     100.0%      0.0%      0.0%
 flops    80 x    32 x    26            223641600     100.0%      0.0%      0.0%
 flops    80 x    26 x    32            223641600     100.0%      0.0%      0.0%
 flops     5 x    26 x     5            247747500     100.0%      0.0%      0.0%
 flops    26 x    32 x    36            249080832     100.0%      0.0%      0.0%
 flops    32 x    26 x    36            249080832     100.0%      0.0%      0.0%
 flops    32 x    32 x    44            249790464     100.0%      0.0%      0.0%
 flops    80 x    26 x    41            257886720     100.0%      0.0%      0.0%
 flops    72 x    26 x    36            305690112     100.0%      0.0%      0.0%
 flops    72 x    32 x    44            306561024     100.0%      0.0%      0.0%
 flops    32 x    32 x    41            310345728     100.0%      0.0%      0.0%
 flops    77 x    26 x    36            326918592     100.0%      0.0%      0.0%
 flops    77 x    32 x    44            327849984     100.0%      0.0%      0.0%
 flops    72 x    32 x    32            330301440     100.0%      0.0%      0.0%
 flops    13 x     5 x    32            336044800     100.0%      0.0%      0.0%
 flops     5 x    13 x    32            336627200     100.0%      0.0%      0.0%
 flops    77 x    32 x    32            353239040     100.0%      0.0%      0.0%
 flops    72 x    32 x    41            380878848     100.0%      0.0%      0.0%
 flops    13 x    13 x    26            387550800     100.0%      0.0%      0.0%
 flops    77 x    32 x    41            407328768     100.0%      0.0%      0.0%
 flops    82 x    32 x    36            428488704     100.0%      0.0%      0.0%
 flops    80 x    26 x    36            509483520     100.0%      0.0%      0.0%
 flops    80 x    32 x    44            510935040     100.0%      0.0%      0.0%
 flops    80 x    32 x    32            550502400     100.0%      0.0%      0.0%
 flops     5 x    32 x     5            609840000     100.0%      0.0%      0.0%
 flops    32 x    32 x    36            613122048     100.0%      0.0%      0.0%
 flops    80 x    32 x    41            634798080     100.0%      0.0%      0.0%
 flops     5 x    26 x    13            683182500     100.0%      0.0%      0.0%
 flops    13 x    26 x     5            683182500     100.0%      0.0%      0.0%
 flops    72 x    32 x    36            752467968     100.0%      0.0%      0.0%
 flops    77 x    32 x    36            804722688     100.0%      0.0%      0.0%
 flops    13 x    13 x    32            953971200     100.0%      0.0%      0.0%
 flops    80 x    32 x    36           1254113280     100.0%      0.0%      0.0%
 flops     5 x    32 x    13           1681680000     100.0%      0.0%      0.0%
 flops    13 x    32 x     5           1681680000     100.0%      0.0%      0.0%
 flops    13 x    26 x    13           1883927500     100.0%      0.0%      0.0%
 flops    13 x    32 x    13           4637360000     100.0%      0.0%      0.0%
 flops inhomo. stacks                           0       0.0%      0.0%      0.0%
 flops total                        28.865548E+09     100.0%      0.0%      0.0%
 flops max/rank                      1.458503E+09     100.0%      0.0%      0.0%
 matmuls inhomo. stacks                         0       0.0%      0.0%      0.0%
 matmuls total                            3031245     100.0%      0.0%      0.0%
 number of processed stacks                474243     100.0%      0.0%      0.0%
 average stack size                                     6.4       0.0       0.0
 marketing flops                    31.361663E+09
 -------------------------------------------------------------------------------
 # multiplications                           1183
 max memory usage/rank               1.456595E+09
 # max total images/rank                        2
 # max 3D layers                                1
 # MPI messages exchanged                 4391296
 MPI messages size (bytes):
  total size                        20.240087E+09
  min size                           0.000000E+00
  max size                          28.864000E+03
  average size                       4.609138E+03
 MPI breakdown and total messages size (bytes):
             size <=      128             3241651                        0
       128 < size <=     8192              143724               1055643456
      8192 < size <=    32768             1005921              19184485152
     32768 < size <=   131072                   0                        0
    131072 < size <=  4194304                   0                        0
   4194304 < size <= 16777216                   0                        0
  16777216 < size                               0                        0
 -------------------------------------------------------------------------------

 *** WARNING in dbcsr_mm.F:294 :: Using a non-square number of MPI ranks ***
 *** might lead to poor performance. Used ranks: 128 Suggested: 121 256  ***

 -------------------------------------------------------------------------------
 -                                                                             -
 -                      DBCSR MESSAGE PASSING PERFORMANCE                      -
 -                                                                             -
 -------------------------------------------------------------------------------
 ROUTINE             CALLS      AVE VOLUME [Bytes]
 MP_Bcast               81                     12.
 MP_Allreduce         6333                      8.
 MP_Alltoall          5138                  26679.
 MP_ISend            74522                   3714.
 MP_IRecv            74060                   3464.
 -------------------------------------------------------------------------------

 -------------------------------------------------------------------------------
 -                                                                             -
 -                                GRID STATISTICS                              -
 -                                                                             -
 -------------------------------------------------------------------------------
 LP    KERNEL             BACKEND                              COUNT     PERCENT
 3     collocate ortho    REF                                2011617      23.62%
 3     integrate ortho    REF                                1895166      22.25%
 4     integrate ortho    REF                                1309573      15.38%
 4     collocate ortho    REF                                1221819      14.35%
 2     collocate ortho    REF                                 963552      11.31%
 2     integrate ortho    REF                                 856494      10.06%
 5     integrate ortho    REF                                 135755       1.59%
 0     collocate general  REF                                  60928       0.72%
 1     integrate general  REF                                  60928       0.72%
 -------------------------------------------------------------------------------

 MEMORY| Estimated peak process memory [MiB]                                1471

 -------------------------------------------------------------------------------
 -                                                                             -
 -                         MESSAGE PASSING PERFORMANCE                         -
 -                                                                             -
 -------------------------------------------------------------------------------

 ROUTINE             CALLS      AVE VOLUME [Bytes]
 MP_Group                8
 MP_Bcast             6940               10608668.
 MP_Allreduce         2412                1704017.
 MP_Sync                54
 MP_Alltoall          1344                9769794.
 MP_ISendRecv        32004                  32000.
 MP_Wait             44485
 MP_comm_split          21
 MP_ISend            11347                 236143.
 MP_IRecv            11172                 239305.
 MP_Recv                98                  29760.
 -------------------------------------------------------------------------------


 -------------------------------------------------------------------------------
 -                                                                             -
 -                           R E F E R E N C E S                               -
 -                                                                             -
 -------------------------------------------------------------------------------
 
 CP2K version 8.2, the CP2K developers group (2021).
 CP2K is freely available from https://www.cp2k.org/ .

 Kuehne,Thomas D.; Iannuzzi,Marcella; Del Ben,Mauro;
 Rybkin,Vladimir V.; Seewald,Patrick; Stein,Frederick; Laino,Teodoro;
 Khaliullin,Rustam Z.; Schuett,Ole; Schiffmann,Florian; Golze,Dorothea;
 Wilhelm,Jan; Chulkov,Sergey; Bani-Hashemian,Mohammad Hossein;
 Weber,Valery; Borstnik,Urban; Taillefumier,Mathieu;
 Jakobovits,Alice Shoshana; Lazzaro,Alfio; Pabst,Hans; Mueller,Tiziano;
 Schade,Robert; Guidon,Manuel; Andermatt,Samuel; Holmberg,Nico;
 Schenter,Gregory K.; Hehn,Anna; Bussy,Augustin; Belleflamme,Fabian;
 Tabacchi,Gloria; Gloess,Andreas; Lass,Michael; Bethune,Iain;
 Mundy,Christopher J.; Plessl,Christian; Watkins,Matt;
 VandeVondele,Joost; Krack,Matthias; Hutter,Juerg. 
 The Journal of Chemical Physics, 152 (19), (2020). 
 CP2K: An electronic structure and molecular dynamics software package -
 Quickstep: Efficient and accurate electronic structure calculations.
 https://doi.org/10.1063/5.0007045

 Schuett, Ole; Messmer, Peter; Hutter, Juerg; VandeVondele, Joost. 
 Electronic Structure Calculations on Graphics Processing Units, John
 Wiley & Sons, Ltd, 173-190 (2016). 
 GPU-Accelerated Sparse Matrix-Matrix Multiplication for
 Linear Scaling Density Functional Theory.
 https://doi.org/10.1002/9781118670712.ch8

 Borstnik, U; VandeVondele, J; Weber, V; Hutter, J. 
 PARALLEL COMPUTING, 40 (5-6), 47-58 (2014). 
 Sparse matrix multiplication: The distributed block-compressed sparse
 row library.
 https://doi.org/10.1016/j.parco.2014.03.012

 Hutter, J; Iannuzzi, M; Schiffmann, F; VandeVondele, J. 
 WIREs Comput Mol Sci., 4 (1), 15-25 (2014). 
 CP2K: atomistic simulations of condensed matter systems.
 https://doi.org/10.1002/wcms.1159

 Marek, A; Blum, V; Johanni, R; Havu, V; Lang, B; Auckenthaler, T;
 Heinecke, A; Bungartz, H; Lederer, H. 
 Journal of Physics: Condensed Matter, 26 (21), (2014). 
 The ELPA library: scalable parallel eigenvalue solutions for
 electronic structure
 theory and computational science.
 https://doi.org/10.1088/0953-8984/26/21/213201

 VandeVondele, J; Hutter, J. 
 JOURNAL OF CHEMICAL PHYSICS, 127 (11), 114105 (2007). 
 Gaussian basis sets for accurate calculations on molecular systems in
 gas and condensed phases.
 https://doi.org/10.1063/1.2770708

 Kuhne, TD; Krack, M; Mohamed, FR; Parrinello, M. 
 PHYSICAL REVIEW LETTERS, 98 (6), 066401 (2007). 
 Efficient and accurate Car-Parrinello-like approach to
 Born-Oppenheimer molecular dynamics.
 https://doi.org/10.1103/PhysRevLett.98.066401

 Laino, T; Mohamed, F; Laio, A; Parrinello, M. 
 JOURNAL OF CHEMICAL THEORY AND COMPUTATION, 2 (5), 1370-1378 (2006). 
 An efficient linear-scaling electrostatic coupling for treating
 periodic boundary conditions in QM/MM simulations.
 https://doi.org/10.1021/ct6001169

 Laino, T; Mohamed, F; Laio, A; Parrinello, M. 
 JOURNAL OF CHEMICAL THEORY AND COMPUTATION, 1 (6), 1176-1184 (2005). 
 An efficient real space multigrid QM/MM electrostatic coupling.
 https://doi.org/10.1021/ct050123f

 Krack, M. 
 THEORETICAL CHEMISTRY ACCOUNTS, 114 (1-3), 145-152 (2005). 
 Pseudopotentials for H to Kr optimized for gradient-corrected
 exchange-correlation functionals.
 https://doi.org/10.1007/s00214-005-0655-y

 VandeVondele, J; Krack, M; Mohamed, F; Parrinello, M; Chassaing, T;
 Hutter, J. COMPUTER PHYSICS COMMUNICATIONS, 167 (2), 103-128 (2005). 
 QUICKSTEP: Fast and accurate density functional calculations using a
 mixed Gaussian and plane waves approach.
 https://doi.org/10.1016/j.cpc.2004.12.014

 Frigo, M; Johnson, SG. 
 PROCEEDINGS OF THE IEEE, 93 (2), 216-231 (2005). 
 The design and implementation of FFTW3.
 https://doi.org/10.1109/JPROC.2004.840301

 Kolafa, J. 
 JOURNAL OF COMPUTATIONAL CHEMISTRY, 25 (3), 335-342 (2004). 
 Time-reversible always stable predictor-corrector method for molecular dynamics of polarizable molecules.
 https://doi.org/10.1002/jcc.10385

 VandeVondele, J; Hutter, J. 
 JOURNAL OF CHEMICAL PHYSICS, 118 (10), 4365-4369 (2003). 
 An efficient orbital transformation method for electronic structure
 calculations.
 https://doi.org/10.1063/1.1543154

 Hartwigsen, C; Goedecker, S; Hutter, J. 
 PHYSICAL REVIEW B, 58 (7), 3641-3662 (1998). 
 Relativistic separable dual-space Gaussian pseudopotentials from H to Rn.
 https://doi.org/10.1103/PhysRevB.58.3641

 Lippert, G; Hutter, J; Parrinello, M. 
 MOLECULAR PHYSICS, 92 (3), 477-487 (1997). 
 A hybrid Gaussian and plane wave density functional scheme.
 https://doi.org/10.1080/002689797170220

 Perdew, JP; Burke, K; Ernzerhof, M. 
 PHYSICAL REVIEW LETTERS, 77 (18), 3865-3868 (1996). 
 Generalized gradient approximation made simple.
 https://doi.org/10.1103/PhysRevLett.77.3865

 Goedecker, S; Teter, M; Hutter, J. 
 PHYSICAL REVIEW B, 54 (3), 1703-1710 (1996). 
 Separable dual-space Gaussian pseudopotentials.
 https://doi.org/10.1103/PhysRevB.54.1703

 ESSMANN, U; PERERA, L; BERKOWITZ, ML; DARDEN, T; LEE, H; PEDERSEN, LG. 
 JOURNAL OF CHEMICAL PHYSICS, 103 (19), 8577-8593 (1995). 
 A SMOOTH PARTICLE MESH EWALD METHOD.
 https://doi.org/10.1063/1.470117

 BLOCHL, PE. 
 JOURNAL OF CHEMICAL PHYSICS, 103 (17), 7422-7428 (1995). 
 ELECTROSTATIC DECOUPLING OF PERIODIC IMAGES OF PLANE-WAVE-EXPANDED
 DENSITIES AND DERIVED ATOMIC POINT CHARGES.
 https://doi.org/10.1063/1.470314


 -------------------------------------------------------------------------------
 -                                                                             -
 -                                T I M I N G                                  -
 -                                                                             -
 -------------------------------------------------------------------------------
 SUBROUTINE                       CALLS  ASD         SELF TIME        TOTAL TIME
                                MAXIMUM       AVERAGE  MAXIMUM  AVERAGE  MAXIMUM
 CP2K                                 1  1.0    0.438    0.471  449.566  449.568
 qs_mol_dyn_low                       1  2.0    0.026    0.029  390.639  392.387
 velocity_verlet                      6  3.0    0.131    0.136  337.799  337.824
 qmmm_forces                          7  3.9    0.131    0.135  166.513  166.516
 qmmm_forces_with_gaussian            7  4.9    5.114    5.161  164.417  165.909
 qmmm_el_coupling                     7  3.9    0.000    0.000  122.452  122.981
 qmmm_elec_with_gaussian              7  4.9    5.296    5.456  122.440  122.965
 qs_forces                            7  3.9    0.002    0.002   92.918   92.922
 qs_energies                          7  4.9    0.001    0.001   84.173   84.176
 pw_restrict_s3                      21  5.9   20.978   21.588   82.064   82.828
 scf_env_do_scf                       7  5.9    0.000    0.000   80.090   80.090
 scf_env_do_scf_inner_loop           56  6.9    0.001    0.003   72.244   72.255
 rebuild_ks_matrix                   63  8.6    0.001    0.001   65.709   65.726
 qs_ks_build_kohn_sham_matrix        63  9.6    0.013    0.016   65.708   65.725
 pw_integral_ab                    2967  7.5   64.498   65.382   64.756   65.516
 qmmm_force_with_gaussian_low         7  5.9    0.000    0.000   61.576   62.997
 qmmm_elec_with_gaussian:spline       7  5.9    0.000    0.000   60.725   61.258
 pw_prolongate_s3                    21  6.9   15.753   16.532   60.725   61.258
 qs_ks_update_qs_env                 63  7.9    0.001    0.001   57.178   57.193
 qmmm_env_create                      1  2.0    9.738    9.892   56.730   56.733
 qmmm_forces_gaussian_low_R           7  6.9    0.000    0.000   51.663   52.818
 qmmm_forces_with_gaussian_LG         7  7.9   51.663   52.818   51.663   52.818
 pw_transfer                       1337 12.1    0.151    0.183   40.361   42.723
 fft_wrap_pw1pw2                   1113 13.2    0.015    0.019   39.282   41.613
 qmmm_elec_with_gaussian_low          7  5.9    0.000    0.000   40.679   41.334
 fist_init                            1  3.0    0.000    0.000   40.943   40.943
 fft_wrap_pw1pw2_200                707 14.4    4.025    4.686   38.516   40.672
 qmmm_elec_gaussian_low_R             7  6.9    0.000    0.000   36.303   36.817
 qmmm_elec_with_gaussian_LG           7  7.9   36.303   36.817   36.303   36.817
 qs_vxc_create                       63 10.6    0.003    0.004   33.648   33.662
 xc_vxc_pw_create                    63 11.6    0.335    0.467   33.645   33.660
 fft3d_ps                          1113 15.2   16.336   17.711   29.131   31.796
 mp_sum_dm3                          38  5.7   29.869   30.520   29.869   30.520
 force_field_control                  1  4.0    0.000    0.000   24.222   24.622
 sum_up_and_integrate                63 10.6    0.156    0.191   23.820   23.846
 integrate_v_rspace                  63 11.6    0.003    0.004   23.664   23.709
 qs_rho_update_rho                   63  8.0    0.001    0.001   23.667   23.678
 calculate_rho_elec                  63  9.0    0.059    0.072   23.666   23.677
 rs_pw_transfer                     546 11.9    0.011    0.014   21.338   22.934
 density_rs2pw                       63 10.0    0.004    0.005   19.585   21.141
 pw_zero                           2442  7.3   20.060   21.078   20.060   21.078
 pw_axpy                           1914  8.3   20.166   20.822   20.166   20.822
 rdparm_amber_8                       2  6.5   14.751   15.245   18.087   18.334
 xc_rho_set_and_dset_create          63 12.6    0.246    0.280   15.690   18.144
 topology_control                     1  4.0    0.000    0.000   16.504   16.941
 force_field_pack                     1  5.0    0.012    0.021   15.596   15.811
 mp_waitany                       11172 13.7   10.783   13.544   10.783   13.544
 mp_alltoall_z22v                  1113 17.2    9.317   13.484    9.317   13.484
 grid_collocate_task_list            63 10.0    3.864   12.876    3.864   12.876
 potential_pw2rs                     63 12.6    0.006    0.008   12.123   12.166
 rs_pw_transfer_RS2PW_200            70 11.8    2.459    3.654   10.434   12.075
 force_field_pack_splines             2  6.0    0.017    0.028   11.780   12.019
 get_nonbond_storage                  2  7.0    0.328    0.388   11.523   11.762
 grid_integrate_task_list            63 12.6    1.256   11.510    1.256   11.510
 set_potparm_index                  602  8.0    0.448    0.458   11.195   11.501
 mp_alltoall_d11v                  1417 13.5   10.314   11.184   10.314   11.184
 rs_gather_matrices                  63 12.6    0.002    0.003   10.279   11.174
 init_genpot                        604  9.0   10.776   11.066   10.776   11.066
 yz_to_x                            518 15.8    1.228    1.409    7.138   10.695
 qmmm_forces_gaussian_low_G           7  6.9    9.913   10.179    9.913   10.179
 connectivity_control                 2  4.0    0.000    0.000    9.924    9.962
 read_connectivity_amber              1  6.0    0.000    0.000    9.600    9.612
 -------------------------------------------------------------------------------

 The number of warnings for this run is : 1
 
 -------------------------------------------------------------------------------
  **** **** ******  **  PROGRAM ENDED AT                 2021-08-31 15:00:53.243
 ***** ** ***  *** **   PROGRAM RAN ON                                 nid001525
 **    ****   ******    PROGRAM RAN BY                                     hjbio
 ***** **    ** ** **   PROGRAM PROCESS ID                                211257
  **** **  *******  **  PROGRAM STOPPED IN /lus/cls01095/work/d118/d118/hjbio/qm
                                           mm-benchmarking/archer2/CPU/cp2kMD/CB
                                           D_PHY/6STEPS/1NODES/128CPN/1THREADS
