 DBCSR| CPU Multiplication driver                                           BLAS
 DBCSR| Multrec recursion limit                                              512
 DBCSR| Multiplication stack size                                           1000
 DBCSR| Maximum elements for images                                    UNLIMITED
 DBCSR| Multiplicative factor virtual images                                   1
 DBCSR| Use multiplication densification                                       T
 DBCSR| Multiplication size stacks                                             3
 DBCSR| Use memory pool for CPU allocation                                     F
 DBCSR| Number of 3D layers                                               SINGLE
 DBCSR| Use MPI memory allocation                                              F
 DBCSR| Use RMA algorithm                                                      F
 DBCSR| Use Communication thread                                               T
 DBCSR| Communication thread load                                             83
 DBCSR| MPI: My node id                                                        0
 DBCSR| MPI: Number of nodes                                                 128
 DBCSR| OMP: Current number of threads                                         2
 DBCSR| OMP: Max number of threads                                             2
 DBCSR| Split modifier for TAS multiplication algorithm                  1.0E+00


  **** **** ******  **  PROGRAM STARTED AT               2021-09-01 11:39:33.900
 ***** ** ***  *** **   PROGRAM STARTED ON                             nid001650
 **    ****   ******    PROGRAM STARTED BY                                 hjbio
 ***** **    ** ** **   PROGRAM PROCESS ID                                185363
  **** **  *******  **  PROGRAM STARTED IN /lus/cls01095/work/d118/d118/hjbio/qm
                                           mm-benchmarking/archer2/CPU/cp2kMD/CB
                                           D_PHY-PBE0/6STEPS/2NODES/128CPN/2THRE
                                           ADS

 CP2K| version string:                                          CP2K version 8.2
 CP2K| source code revision number:                                  git:310b7ab
 CP2K| cp2kflags: omp libint fftw3 libxc elpa parallel mpi3 scalapack plumed2   
 CP2K| is freely available from                            https://www.cp2k.org/
 CP2K| Program compiled at                          Thu 10 Jun 17:43:51 BST 2021
 CP2K| Program compiled on                                                 uan01
 CP2K| Program compiled for                                              ARCHER2
 CP2K| Data directory path              /work/d118/d118/hjbio/CP2K/cp2k-8.2/data
 CP2K| Input file name                                          CBD_PHY-cp2k.inp

 GLOBAL| Force Environment number                                              1
 GLOBAL| Basis set file name                                           HFX_BASIS
 GLOBAL| Potential file name                                           POTENTIAL
 GLOBAL| MM Potential file name                                     MM_POTENTIAL
 GLOBAL| Coordinate file name                                        CBD_PHY.pdb
 GLOBAL| Method name                                                        CP2K
 GLOBAL| Project name                                               CBD_PHY-PBE0
 GLOBAL| Run type                                                             MD
 GLOBAL| FFT library                                                       FFTW3
 GLOBAL| Diagonalization library                                            ELPA
 GLOBAL| Minimum number of eigenvectors for ELPA usage                        16
 GLOBAL| Orthonormality check for eigenvectors                          DISABLED
 GLOBAL| Matrix multiplication library                                    SCALAP
 GLOBAL| All-to-all communication in single precision                          F
 GLOBAL| FFTs using library dependent lengths                                  F
 GLOBAL| Grid backend                                                       AUTO
 GLOBAL| Global print level                                                  LOW
 GLOBAL| MPI I/O enabled                                                       T
 GLOBAL| Total number of message passing processes                           128
 GLOBAL| Number of threads for this process                                    2
 GLOBAL| This output is from process                                           0
 GLOBAL| CPU model name                          AMD EPYC 7742 64-Core Processor
 GLOBAL| CPUID                                                              1002

 MEMORY| system memory details [Kb]
 MEMORY|                        rank 0           min           max       average
 MEMORY| MemTotal            263568576     263568576     263568576     263568576
 MEMORY| MemFree             240037500     239731496     240037500     239884498
 MEMORY| Buffers                240368        204900        240368        222634
 MEMORY| Cached                8738316       8151976       8738316       8445146
 MEMORY| Slab                  2394060       2394060       2601172       2497616
 MEMORY| SReclaimable           213068        213068        251700        232384
 MEMORY| MemLikelyFree       249229252     248340072     249229252     248784662



                      ************* ******** ***********   
                     ************* **********************  
                     ****     **** ****      ***********   
                     ******** ****  *******     ****       
                     *******  ****   *******   ****        
                     ****     ****       ****  ****        
                     ****     **** **********  ****        
                      ****     **** ********    ****       
                     FRONTIERS IN SIMULATION TECHNOLOGY    
                                                           
                        C.J. Mundy, S. Balasubramanian,    
                     Ken Bagchi, J. Hutter, Ari Seitsonen  
                      IFW Kuo, T. Laino, J. VandeVondele   
                                 Version 1.0               

                                                           


 EWALD| Summation is done by:                                               SPME
 EWALD| Alpha parameter [       ANGSTROM^-1]                              0.4000
 EWALD| Real Space Cutoff [          ANGSTROM]                            8.4348
 EWALD| G-space max. Miller index                         80        80        80
 EWALD| Spline interpolation order                                             6

 FORCEFIELD| WARNING: A non Critical ForceField parameter is missing! CP2K GOES!
 FORCEFIELD| Non critical parameters are:Urey-Bradley,Torsions,Impropers, Opbends and 1-4
 FORCEFIELD| All missing parameters will not contribute to the potential energy!
 FORCEFIELD| Activate the print key FF_INFO to have a list of missing parameters

 CHARGE_INFO| Total Charge of the Classical System:                    -0.825808

 SPLINE_INFO| Generating 101926 splines for NONBONDED14 interactions 
              Due to 451 different atomic kinds
  ...10192  ...20384  ...30576  ...40768  ...50960  ...61152  ...71344  ...81536  ...91728  ...101920
 SPLINE_INFO| Number of unique splines computed:            301
 SPLINE_INFO| Done

 SPLINE_INFO| Generating 101926 splines for NONBONDED interactions 
              Due to 451 different atomic kinds
  ...10192  ...20384  ...30576  ...40768  ...50960  ...61152  ...71344  ...81536  ...91728  ...101920
 SPLINE_INFO| Number of unique splines computed:            301
 SPLINE_INFO| Done

 *******************************************************************************
 *******************************************************************************
 **                                                                           **
 **     #####                         ##              ##                      **
 **    ##   ##            ##          ##              ##                      **
 **   ##     ##                       ##            ######                    **
 **   ##     ##  ##   ##  ##   #####  ##  ##   ####   ##    #####    #####    **
 **   ##     ##  ##   ##  ##  ##      ## ##   ##      ##   ##   ##  ##   ##   **
 **   ##  ## ##  ##   ##  ##  ##      ####     ###    ##   ######   ######    **
 **    ##  ###   ##   ##  ##  ##      ## ##      ##   ##   ##       ##        **
 **     #######   #####   ##   #####  ##  ##  ####    ##    #####   ##        **
 **           ##                                                    ##        **
 **                                                                           **
 **                                                ... make the atoms dance   **
 **                                                                           **
 **            Copyright (C) by CP2K developers group (2000-2021)             **
 **                      J. Chem. Phys. 152, 194103 (2020)                    **
 **                                                                           **
 *******************************************************************************


 TOTAL NUMBERS AND MAXIMUM NUMBERS

  Total number of            - Atomic kinds:                                   5
                             - Atoms:                                         68
                             - Shell sets:                                   340
                             - Shells:                                       445
                             - Primitive Cartesian functions:                476
                             - Cartesian basis functions:                   1137
                             - Spherical basis functions:                   1067

  Maximum angular momentum of- Orbital basis functions:                        2
                             - Local part of the GTH pseudopotential:          2
                             - Non-local part of the GTH pseudopotential:      0


 SCF PARAMETERS         Density guess:                                   RESTART
                        --------------------------------------------------------
                        max_scf:                                              30
                        max_scf_history:                                       0
                        max_diis:                                              4
                        --------------------------------------------------------
                        eps_scf:                                        1.00E-06
                        eps_scf_history:                                0.00E+00
                        eps_diis:                                       1.00E-01
                        eps_eigval:                                     1.00E-05
                        --------------------------------------------------------
                        level_shift [a.u.]:                                 0.00
                        --------------------------------------------------------
                        Outer loop SCF in use 
                        No variables optimised in outer loop
                        eps_scf                                         1.00E-06
                        max_scf                                               20
                        No outer loop optimization
                        step_size                                       5.00E-01

 *******************************************************************************
 *******************************************************************************
 **                                                                           **
 **             #######  ##     ## ##     ## ##     ##                        **
 **            ##     ## ###   ### ###   ### ###   ###                        **
 **            ##     ## #### #### #### #### #### ####                        **
 **            ##     ## ## ### ## ## ### ## ## ### ##                        **
 **            ##  ## ## ##     ## ##     ## ##     ##                        **
 **            ##    ##  ##     ## ##     ## ##     ##  T.Laino and F.Mohamed **
 **             ##### ## ##     ## ##     ## ##     ##  2005 - 2015           **
 **                                                                           **
 **                                                     Calculation Started.. **
 *******************************************************************************
 *******************************************************************************

 MD_PAR| Molecular dynamics protocol (MD input parameters)
 MD_PAR| Ensemble type                                                       NVE
 MD_PAR| Number of time steps                                                  6
 MD_PAR| Time step [fs]                                                 1.000000
 MD_PAR| Temperature [K]                                              300.000000
 MD_PAR| Temperature tolerance [K]                                      0.000000
 MD_PAR| Print MD information every                                    1 step(s)
 MD_PAR| File type   Print frequency [steps]                          File names
 MD_PAR| Coordinates          1                           CBD_PHY-PBE0-pos-1.xyz
 MD_PAR| Velocities           1                           CBD_PHY-PBE0-vel-1.xyz
 MD_PAR| Energies             1                              CBD_PHY-PBE0-1.ener
 MD_PAR| Dump                20                           CBD_PHY-PBE0-1.restart

 ROT| Rotational analysis information
 ROT| Principal axes and moments of inertia [a.u.]
 ROT|                           1                   2                   3
 ROT| Eigenvalues      1.56283164001E+13   1.56407408488E+13   1.56663418804E+13
 ROT|      x              0.901637047331     -0.018153263569      0.432112362589
 ROT|      y              0.323714777231      0.690893927917     -0.646431994388
 ROT|      z             -0.286808957117      0.722728191915      0.628812040859
 ROT| Number of rotovibrational vectors                                        6

 DOF| Calculation of degrees of freedom
 DOF| Number of atoms                                                     167923
 DOF| Number of intramolecular constraints                                     0
 DOF| Number of intermolecular constraints                                     0
 DOF| Invariants (translations + rotations)                                    3
 DOF| Degrees of freedom                                                  503766

 DOF| Restraints information
 DOF| Number of intramolecular restraints                                      0
 DOF| Number of intermolecular restraints                                      0

 MD_VEL| Velocities initialization
 MD_VEL| Initial temperature [K]                                      300.000000
 MD_VEL| COM velocity            -0.0000000000     0.0000000000     0.0000000000

  Translating the system in order to center the QM fragment in the QM box.

 Number of electrons:                                                        180
 Number of occupied orbitals:                                                 90
 Number of molecular orbitals:                                                90

 Number of orbital functions:                                               1067
 Number of independent orbital functions:                                   1067

 Extrapolation method: initial_guess


 SCF WAVEFUNCTION OPTIMIZATION

  ----------------------------------- OT ---------------------------------------
  Minimizer      : DIIS                : direct inversion
                                         in the iterative subspace
                                         using   7 DIIS vectors
                                         safer DIIS on
  Preconditioner : FULL_ALL            : diagonalization, state selective
  Precond_solver : DEFAULT
  stepsize       :    0.15000000                  energy_gap     :    0.08000000
  eps_taylor     :   0.10000E-15                  max_taylor     :             4
  ----------------------------------- OT ---------------------------------------

  Step     Update method      Time    Convergence         Total energy    Change
  ------------------------------------------------------------------------------
  Decoupling Energy:                                               0.0370647021
  Recoupling Energy:                                              -0.0063741479
     1 OT DIIS     0.15E+00    7.0     0.00129057      -255.9257316521 -2.56E+02
  Decoupling Energy:                                               0.0370576004
  Recoupling Energy:                                              -0.0063740314
     2 OT DIIS     0.15E+00    1.1     0.00057761      -255.9419521977 -1.62E-02
  Decoupling Energy:                                               0.0369596417
  Recoupling Energy:                                              -0.0063730135
     3 OT DIIS     0.15E+00    1.1     0.00038348      -255.9451217318 -3.17E-03
  Decoupling Energy:                                               0.0369795470
  Recoupling Energy:                                              -0.0063732416
     4 OT DIIS     0.15E+00    1.1     0.00009866      -255.9458275768 -7.06E-04
  Decoupling Energy:                                               0.0369716948
  Recoupling Energy:                                              -0.0063731487
     5 OT DIIS     0.15E+00    1.1     0.00003992      -255.9458779686 -5.04E-05
  Decoupling Energy:                                               0.0369737640
  Recoupling Energy:                                              -0.0063731649
     6 OT DIIS     0.15E+00    1.1     0.00001793      -255.9458894170 -1.14E-05
  Decoupling Energy:                                               0.0369741808
  Recoupling Energy:                                              -0.0063731680
     7 OT DIIS     0.15E+00    1.1     0.00000621      -255.9458922938 -2.88E-06
  Decoupling Energy:                                               0.0369727127
  Recoupling Energy:                                              -0.0063731518
     8 OT DIIS     0.15E+00    1.1     0.00000242      -255.9458926328 -3.39E-07
  Decoupling Energy:                                               0.0369731061
  Recoupling Energy:                                              -0.0063731556
     9 OT DIIS     0.15E+00    1.1     0.00000111      -255.9458926822 -4.94E-08
  Decoupling Energy:                                               0.0369728228
  Recoupling Energy:                                              -0.0063731526
    10 OT DIIS     0.15E+00    1.1     0.00000048      -255.9458926924 -1.02E-08

  *** SCF run converged in    10 steps ***


  Electronic density on regular grids:       -179.9999999999        0.0000000001
  Core density on regular grids:              180.9999999999       -0.0000000001
  Total charge density on r-space grids:        1.0000000000
  Total charge density g-space grids:           1.0000000000

  Overlap energy of the core charge distribution:               0.00001951532734
  Self energy of the core charge distribution:               -615.71576003586028
  Core Hamiltonian energy:                                    191.01363220817603
  Hartree energy:                                             248.20663869015868
  Exchange-correlation energy:                                -61.38430761263350
  Hartree-Fock Exchange energy:                               -18.10821018492831
  QM/MM Electrostatic energy:                                   0.04209472735334

  Total energy:                                              -255.94589269240666

  outer SCF iter =    1 RMS gradient =   0.48E-06 energy =       -255.9458926924
  outer SCF loop converged in   1 iterations or   10 steps

  Decoupling Energy:                                               0.0369728028
  Recoupling Energy:                                              -0.0063731523

 ENERGY| Total FORCE_EVAL ( QMMM ) energy [a.u.]:          -1088.110859624469640

 MD_INI| MD initialization
 MD_INI| Potential energy [hartree]                          -0.108811085962E+04
 MD_INI| Total kinetic energy [hartree]                       0.239300084734E+03
 MD_INI| QM kinetic energy [hartree]                          0.106639360339E+00
 MD_INI| Total temperature [K]                                        300.000000
 MD_INI| QM temperature [K]                                           330.137318
 MD_INI| Cell volume [bohr^3]                                 1.137316355424E+07
 MD_INI| Cell volume [ang^3]                                  1.685328937712E+06
 MD_INI| Cell lengths [bohr]      2.24884969E+02  2.24884969E+02  2.24884969E+02
 MD_INI| Cell lengths [ang]       1.19004000E+02  1.19004000E+02  1.19004000E+02
 MD_INI| Cell angles [deg]        9.00000000E+01  9.00000000E+01  9.00000000E+01

  Translating the system in order to center the QM fragment in the QM box.

 Number of electrons:                                                        180
 Number of occupied orbitals:                                                 90
 Number of molecular orbitals:                                                90

 Number of orbital functions:                                               1067
 Number of independent orbital functions:                                   1067

 Extrapolation method: ASPC


 SCF WAVEFUNCTION OPTIMIZATION

  ----------------------------------- OT ---------------------------------------
  Minimizer      : DIIS                : direct inversion
                                         in the iterative subspace
                                         using   7 DIIS vectors
                                         safer DIIS on
  Preconditioner : FULL_ALL            : diagonalization, state selective
  Precond_solver : DEFAULT
  stepsize       :    0.15000000                  energy_gap     :    0.08000000
  eps_taylor     :   0.10000E-15                  max_taylor     :             4
  ----------------------------------- OT ---------------------------------------

  Step     Update method      Time    Convergence         Total energy    Change
  ------------------------------------------------------------------------------
  Decoupling Energy:                                               0.0370014667
  Recoupling Energy:                                              -0.0063734172
     1 OT DIIS     0.15E+00    4.5     0.00075899      -255.7182133737 -2.56E+02
  Decoupling Energy:                                               0.0370082386
  Recoupling Energy:                                              -0.0063735355
     2 OT DIIS     0.15E+00    1.1     0.00032685      -255.7237312525 -5.52E-03
  Decoupling Energy:                                               0.0370087411
  Recoupling Energy:                                              -0.0063735590
     3 OT DIIS     0.15E+00    1.1     0.00019068      -255.7247685832 -1.04E-03
  Decoupling Energy:                                               0.0370199882
  Recoupling Energy:                                              -0.0063736817
     4 OT DIIS     0.15E+00    1.1     0.00006054      -255.7249610203 -1.92E-04
  Decoupling Energy:                                               0.0370216763
  Recoupling Energy:                                              -0.0063737045
     5 OT DIIS     0.15E+00    1.1     0.00001954      -255.7249775850 -1.66E-05
  Decoupling Energy:                                               0.0370210005
  Recoupling Energy:                                              -0.0063736984
     6 OT DIIS     0.15E+00    1.1     0.00000817      -255.7249798433 -2.26E-06
  Decoupling Energy:                                               0.0370221929
  Recoupling Energy:                                              -0.0063737124
     7 OT DIIS     0.15E+00    1.1     0.00000308      -255.7249803054 -4.62E-07
  Decoupling Energy:                                               0.0370222382
  Recoupling Energy:                                              -0.0063737132
     8 OT DIIS     0.15E+00    1.1     0.00000136      -255.7249803827 -7.72E-08
  Decoupling Energy:                                               0.0370224658
  Recoupling Energy:                                              -0.0063737159
     9 OT DIIS     0.15E+00    1.1     0.00000058      -255.7249803984 -1.57E-08

  *** SCF run converged in     9 steps ***


  Electronic density on regular grids:       -180.0000000000        0.0000000000
  Core density on regular grids:              180.9999999999       -0.0000000001
  Total charge density on r-space grids:        0.9999999999
  Total charge density g-space grids:           0.9999999999

  Overlap energy of the core charge distribution:               0.00002422739645
  Self energy of the core charge distribution:               -615.71576003586028
  Core Hamiltonian energy:                                    191.21094996704730
  Hartree energy:                                             248.07774811094379
  Exchange-correlation energy:                                -61.42683492615927
  Hartree-Fock Exchange energy:                               -18.12283148222163
  QM/MM Electrostatic energy:                                   0.25172374048165

  Total energy:                                              -255.72498039837197

  outer SCF iter =    1 RMS gradient =   0.58E-06 energy =       -255.7249803984
  outer SCF loop converged in   1 iterations or    9 steps

  Decoupling Energy:                                               0.0370224944
  Recoupling Energy:                                              -0.0063737164

 ENERGY| Total FORCE_EVAL ( QMMM ) energy [a.u.]:          -1059.962356567983988

 MD| ***************************************************************************
 MD| Step number                                                               1
 MD| Time [fs]                                                          1.000000
 MD| Conserved quantity [hartree]                            -0.841461427192E+03
 MD| ---------------------------------------------------------------------------
 MD|                                          Instantaneous             Averages
 MD| CPU time per MD step [s]                    100.231421           100.231421
 MD| Energy drift per atom [K]           0.138202490533E+02   0.000000000000E+00
 MD| Potential energy [hartree]         -0.105996235657E+04  -0.105996235657E+04
 MD| Total kinetic energy [hartree]      0.218500929376E+03   0.218500929376E+03
 MD| QM kinetic energy [hartree]         0.121347250881E+00   0.121347250881E+00
 MD| Total temperature [K]                       273.925013           273.925013
 MD| QM temperature [K]                          375.670445           375.670445
 MD| ***************************************************************************

  Translating the system in order to center the QM fragment in the QM box.

 Number of electrons:                                                        180
 Number of occupied orbitals:                                                 90
 Number of molecular orbitals:                                                90

 Number of orbital functions:                                               1067
 Number of independent orbital functions:                                   1067

 Extrapolation method: ASPC


 SCF WAVEFUNCTION OPTIMIZATION

  ----------------------------------- OT ---------------------------------------
  Minimizer      : DIIS                : direct inversion
                                         in the iterative subspace
                                         using   7 DIIS vectors
                                         safer DIIS on
  Preconditioner : FULL_ALL            : diagonalization, state selective
  Precond_solver : DEFAULT
  stepsize       :    0.15000000                  energy_gap     :    0.08000000
  eps_taylor     :   0.10000E-15                  max_taylor     :             4
  ----------------------------------- OT ---------------------------------------

  Step     Update method      Time    Convergence         Total energy    Change
  ------------------------------------------------------------------------------
  Decoupling Energy:                                               0.0370781902
  Recoupling Energy:                                              -0.0063743357
     1 OT DIIS     0.15E+00    4.4     0.00029255      -255.3622521845 -2.55E+02
  Decoupling Energy:                                               0.0370714453
  Recoupling Energy:                                              -0.0063742686
     2 OT DIIS     0.15E+00    1.1     0.00012379      -255.3630879716 -8.36E-04
  Decoupling Energy:                                               0.0370747184
  Recoupling Energy:                                              -0.0063743003
     3 OT DIIS     0.15E+00    1.1     0.00005679      -255.3632552952 -1.67E-04
  Decoupling Energy:                                               0.0370720746
  Recoupling Energy:                                              -0.0063742776
     4 OT DIIS     0.15E+00    1.1     0.00001757      -255.3632740863 -1.88E-05
  Decoupling Energy:                                               0.0370725460
  Recoupling Energy:                                              -0.0063742816
     5 OT DIIS     0.15E+00    1.1     0.00000682      -255.3632756132 -1.53E-06
  Decoupling Energy:                                               0.0370729629
  Recoupling Energy:                                              -0.0063742866
     6 OT DIIS     0.15E+00    1.1     0.00000313      -255.3632758709 -2.58E-07
  Decoupling Energy:                                               0.0370729477
  Recoupling Energy:                                              -0.0063742865
     7 OT DIIS     0.15E+00    1.1     0.00000105      -255.3632759319 -6.10E-08
  Decoupling Energy:                                               0.0370730056
  Recoupling Energy:                                              -0.0063742872
     8 OT DIIS     0.15E+00    1.1     0.00000048      -255.3632759420 -1.02E-08

  *** SCF run converged in     8 steps ***


  Electronic density on regular grids:       -180.0000000000       -0.0000000000
  Core density on regular grids:              180.9999999999       -0.0000000001
  Total charge density on r-space grids:        0.9999999998
  Total charge density g-space grids:           0.9999999998

  Overlap energy of the core charge distribution:               0.00005088945270
  Self energy of the core charge distribution:               -615.71576003586028
  Core Hamiltonian energy:                                    191.44418510459690
  Hartree energy:                                             247.94136729100649
  Exchange-correlation energy:                                -61.47332405596613
  Hartree-Fock Exchange energy:                               -18.13880631863222
  QM/MM Electrostatic energy:                                   0.57901118336101

  Total energy:                                              -255.36327594204153

  outer SCF iter =    1 RMS gradient =   0.48E-06 energy =       -255.3632759420
  outer SCF loop converged in   1 iterations or    8 steps

  Decoupling Energy:                                               0.0370730223
  Recoupling Energy:                                              -0.0063742875

 ENERGY| Total FORCE_EVAL ( QMMM ) energy [a.u.]:          -1061.235329320883466

 MD| ***************************************************************************
 MD| Step number                                                               2
 MD| Time [fs]                                                          2.000000
 MD| Conserved quantity [hartree]                            -0.842817774827E+03
 MD| ---------------------------------------------------------------------------
 MD|                                          Instantaneous             Averages
 MD| CPU time per MD step [s]                     46.278560            73.254990
 MD| Energy drift per atom [K]           0.112696741059E+02   0.563483705294E+01
 MD| Potential energy [hartree]         -0.106123532932E+04  -0.106059884294E+04
 MD| Total kinetic energy [hartree]      0.218417554494E+03   0.218459241935E+03
 MD| QM kinetic energy [hartree]         0.111577970007E+00   0.116462610444E+00
 MD| Total temperature [K]                       273.820490           273.872751
 MD| QM temperature [K]                          345.426414           360.548429
 MD| ***************************************************************************

  Translating the system in order to center the QM fragment in the QM box.

 Number of electrons:                                                        180
 Number of occupied orbitals:                                                 90
 Number of molecular orbitals:                                                90

 Number of orbital functions:                                               1067
 Number of independent orbital functions:                                   1067

 Extrapolation method: ASPC


 SCF WAVEFUNCTION OPTIMIZATION

  ----------------------------------- OT ---------------------------------------
  Minimizer      : DIIS                : direct inversion
                                         in the iterative subspace
                                         using   7 DIIS vectors
                                         safer DIIS on
  Preconditioner : FULL_ALL            : diagonalization, state selective
  Precond_solver : DEFAULT
  stepsize       :    0.15000000                  energy_gap     :    0.08000000
  eps_taylor     :   0.10000E-15                  max_taylor     :             4
  ----------------------------------- OT ---------------------------------------

  Step     Update method      Time    Convergence         Total energy    Change
  ------------------------------------------------------------------------------
  Decoupling Energy:                                               0.0371231209
  Recoupling Energy:                                              -0.0063748338
     1 OT DIIS     0.15E+00    4.5     0.00057310      -254.8840268179 -2.55E+02
  Decoupling Energy:                                               0.0371263851
  Recoupling Energy:                                              -0.0063748788
     2 OT DIIS     0.15E+00    1.1     0.00022566      -254.8871524786 -3.13E-03
  Decoupling Energy:                                               0.0371270869
  Recoupling Energy:                                              -0.0063748846
     3 OT DIIS     0.15E+00    1.1     0.00008229      -254.8877077862 -5.55E-04
  Decoupling Energy:                                               0.0371223321
  Recoupling Energy:                                              -0.0063748373
     4 OT DIIS     0.15E+00    1.1     0.00002751      -254.8877580227 -5.02E-05
  Decoupling Energy:                                               0.0371233244
  Recoupling Energy:                                              -0.0063748479
     5 OT DIIS     0.15E+00    1.1     0.00001035      -254.8877618255 -3.80E-06
  Decoupling Energy:                                               0.0371231634
  Recoupling Energy:                                              -0.0063748451
     6 OT DIIS     0.15E+00    1.1     0.00000439      -254.8877624102 -5.85E-07
  Decoupling Energy:                                               0.0371230862
  Recoupling Energy:                                              -0.0063748447
     7 OT DIIS     0.15E+00    1.1     0.00000136      -254.8877625001 -8.99E-08
  Decoupling Energy:                                               0.0371230885
  Recoupling Energy:                                              -0.0063748447
     8 OT DIIS     0.15E+00    1.1     0.00000059      -254.8877625109 -1.08E-08

  *** SCF run converged in     8 steps ***


  Electronic density on regular grids:       -180.0000000003       -0.0000000003
  Core density on regular grids:              180.9999999999       -0.0000000001
  Total charge density on r-space grids:        0.9999999996
  Total charge density g-space grids:           0.9999999996

  Overlap energy of the core charge distribution:               0.00005124540502
  Self energy of the core charge distribution:               -615.71576003586028
  Core Hamiltonian energy:                                    191.49125892513183
  Hartree energy:                                             247.90728079501463
  Exchange-correlation energy:                                -61.48094699848539
  Hartree-Fock Exchange energy:                               -18.14140227150033
  QM/MM Electrostatic energy:                                   1.05175582936272

  Total energy:                                              -254.88776251093185

  outer SCF iter =    1 RMS gradient =   0.59E-06 energy =       -254.8877625109
  outer SCF loop converged in   1 iterations or    8 steps

  Decoupling Energy:                                               0.0371230882
  Recoupling Energy:                                              -0.0063748447

 ENERGY| Total FORCE_EVAL ( QMMM ) energy [a.u.]:          -1082.045340696988205

 MD| ***************************************************************************
 MD| Step number                                                               3
 MD| Time [fs]                                                          3.000000
 MD| Conserved quantity [hartree]                            -0.846392350427E+03
 MD| ---------------------------------------------------------------------------
 MD|                                          Instantaneous             Averages
 MD| CPU time per MD step [s]                     46.393932            64.301304
 MD| Energy drift per atom [K]           0.454778162213E+01   0.527248524267E+01
 MD| Potential energy [hartree]         -0.108204534070E+04  -0.106774767553E+04
 MD| Total kinetic energy [hartree]      0.235652990270E+03   0.224190491380E+03
 MD| QM kinetic energy [hartree]         0.117356068637E+00   0.116760429842E+00
 MD| Total temperature [K]                       295.427798           281.057767
 MD| QM temperature [K]                          363.314424           361.470428
 MD| ***************************************************************************

  Translating the system in order to center the QM fragment in the QM box.

 Number of electrons:                                                        180
 Number of occupied orbitals:                                                 90
 Number of molecular orbitals:                                                90

 Number of orbital functions:                                               1067
 Number of independent orbital functions:                                   1067

 Extrapolation method: ASPC


 SCF WAVEFUNCTION OPTIMIZATION

  ----------------------------------- OT ---------------------------------------
  Minimizer      : DIIS                : direct inversion
                                         in the iterative subspace
                                         using   7 DIIS vectors
                                         safer DIIS on
  Preconditioner : FULL_ALL            : diagonalization, state selective
  Precond_solver : DEFAULT
  stepsize       :    0.15000000                  energy_gap     :    0.08000000
  eps_taylor     :   0.10000E-15                  max_taylor     :             4
  ----------------------------------- OT ---------------------------------------

  Step     Update method      Time    Convergence         Total energy    Change
  ------------------------------------------------------------------------------
  Decoupling Energy:                                               0.0371654826
  Recoupling Energy:                                              -0.0063753282
     1 OT DIIS     0.15E+00    4.5     0.00026681      -254.3373017275 -2.54E+02
  Decoupling Energy:                                               0.0371742697
  Recoupling Energy:                                              -0.0063754101
     2 OT DIIS     0.15E+00    1.1     0.00010702      -254.3379933816 -6.92E-04
  Decoupling Energy:                                               0.0371691181
  Recoupling Energy:                                              -0.0063753568
     3 OT DIIS     0.15E+00    1.1     0.00004002      -254.3381218047 -1.28E-04
  Decoupling Energy:                                               0.0371714785
  Recoupling Energy:                                              -0.0063753814
     4 OT DIIS     0.15E+00    1.1     0.00001273      -254.3381316914 -9.89E-06
  Decoupling Energy:                                               0.0371702644
  Recoupling Energy:                                              -0.0063753693
     5 OT DIIS     0.15E+00    1.1     0.00000545      -254.3381325320 -8.41E-07
  Decoupling Energy:                                               0.0371705243
  Recoupling Energy:                                              -0.0063753714
     6 OT DIIS     0.15E+00    1.1     0.00000190      -254.3381326717 -1.40E-07
  Decoupling Energy:                                               0.0371705464
  Recoupling Energy:                                              -0.0063753718
     7 OT DIIS     0.15E+00    1.1     0.00000064      -254.3381326905 -1.89E-08

  *** SCF run converged in     7 steps ***


  Electronic density on regular grids:       -179.9999999999        0.0000000001
  Core density on regular grids:              180.9999999999       -0.0000000001
  Total charge density on r-space grids:        1.0000000000
  Total charge density g-space grids:           1.0000000000

  Overlap energy of the core charge distribution:               0.00002358475044
  Self energy of the core charge distribution:               -615.71576003586028
  Core Hamiltonian energy:                                    191.34733591548866
  Hartree energy:                                             247.97609045526778
  Exchange-correlation energy:                                -61.44937288368642
  Hartree-Fock Exchange energy:                               -18.13042014430390
  QM/MM Electrostatic energy:                                   1.63397041780969

  Total energy:                                              -254.33813269053405

  outer SCF iter =    1 RMS gradient =   0.64E-06 energy =       -254.3381326905
  outer SCF loop converged in   1 iterations or    7 steps

  Decoupling Energy:                                               0.0371704718
  Recoupling Energy:                                              -0.0063753710

 ENERGY| Total FORCE_EVAL ( QMMM ) energy [a.u.]:          -1079.714054077583341

 MD| ***************************************************************************
 MD| Step number                                                               4
 MD| Time [fs]                                                          4.000000
 MD| Conserved quantity [hartree]                            -0.842113596502E+03
 MD| ---------------------------------------------------------------------------
 MD|                                          Instantaneous             Averages
 MD| CPU time per MD step [s]                     45.021066            59.481245
 MD| Energy drift per atom [K]           0.125938623517E+02   0.710282951993E+01
 MD| Potential energy [hartree]         -0.107971405408E+04  -0.107073927017E+04
 MD| Total kinetic energy [hartree]      0.237600457576E+03   0.227542982929E+03
 MD| QM kinetic energy [hartree]         0.148329485797E+00   0.124652693830E+00
 MD| Total temperature [K]                       297.869252           285.260638
 MD| QM temperature [K]                          459.202854           385.903534
 MD| ***************************************************************************

  Translating the system in order to center the QM fragment in the QM box.

 Number of electrons:                                                        180
 Number of occupied orbitals:                                                 90
 Number of molecular orbitals:                                                90

 Number of orbital functions:                                               1067
 Number of independent orbital functions:                                   1067

 Extrapolation method: ASPC


 SCF WAVEFUNCTION OPTIMIZATION

  ----------------------------------- OT ---------------------------------------
  Minimizer      : DIIS                : direct inversion
                                         in the iterative subspace
                                         using   7 DIIS vectors
                                         safer DIIS on
  Preconditioner : FULL_ALL            : diagonalization, state selective
  Precond_solver : DEFAULT
  stepsize       :    0.15000000                  energy_gap     :    0.08000000
  eps_taylor     :   0.10000E-15                  max_taylor     :             4
  ----------------------------------- OT ---------------------------------------

  Step     Update method      Time    Convergence         Total energy    Change
  ------------------------------------------------------------------------------
  Decoupling Energy:                                               0.0372102523
  Recoupling Energy:                                              -0.0063758453
     1 OT DIIS     0.15E+00    4.5     0.00032070      -253.7449373044 -2.54E+02
  Decoupling Energy:                                               0.0372072052
  Recoupling Energy:                                              -0.0063758019
     2 OT DIIS     0.15E+00    1.1     0.00013130      -253.7458509331 -9.14E-04
  Decoupling Energy:                                               0.0372093595
  Recoupling Energy:                                              -0.0063758215
     3 OT DIIS     0.15E+00    1.1     0.00006213      -253.7460089321 -1.58E-04
  Decoupling Energy:                                               0.0372088253
  Recoupling Energy:                                              -0.0063758155
     4 OT DIIS     0.15E+00    1.1     0.00002427      -253.7460398605 -3.09E-05
  Decoupling Energy:                                               0.0372096147
  Recoupling Energy:                                              -0.0063758219
     5 OT DIIS     0.15E+00    1.1     0.00000525      -253.7460423733 -2.51E-06
  Decoupling Energy:                                               0.0372093024
  Recoupling Energy:                                              -0.0063758193
     6 OT DIIS     0.15E+00    1.1     0.00000251      -253.7460425168 -1.44E-07
  Decoupling Energy:                                               0.0372093015
  Recoupling Energy:                                              -0.0063758191
     7 OT DIIS     0.15E+00    1.1     0.00000088      -253.7460425489 -3.20E-08

  *** SCF run converged in     7 steps ***


  Electronic density on regular grids:       -180.0000000000       -0.0000000000
  Core density on regular grids:              180.9999999999       -0.0000000001
  Total charge density on r-space grids:        0.9999999998
  Total charge density g-space grids:           0.9999999998

  Overlap energy of the core charge distribution:               0.00001841792106
  Self energy of the core charge distribution:               -615.71576003586028
  Core Hamiltonian energy:                                    191.22475703366612
  Hartree energy:                                             248.04794065840568
  Exchange-correlation energy:                                -61.41799314504658
  Hartree-Fock Exchange energy:                               -18.11952378494352
  QM/MM Electrostatic energy:                                   2.23451830697388

  Total energy:                                              -253.74604254888359

  outer SCF iter =    1 RMS gradient =   0.88E-06 energy =       -253.7460425489
  outer SCF loop converged in   1 iterations or    7 steps

  Decoupling Energy:                                               0.0372093295
  Recoupling Energy:                                              -0.0063758194

 ENERGY| Total FORCE_EVAL ( QMMM ) energy [a.u.]:          -1094.307011438979998

 MD| ***************************************************************************
 MD| Step number                                                               5
 MD| Time [fs]                                                          5.000000
 MD| Conserved quantity [hartree]                            -0.848389414455E+03
 MD| ---------------------------------------------------------------------------
 MD|                                          Instantaneous             Averages
 MD| CPU time per MD step [s]                     45.353903            56.655776
 MD| Energy drift per atom [K]           0.792356873432E+00   0.584073499063E+01
 MD| Potential energy [hartree]         -0.109430701144E+04  -0.107545281842E+04
 MD| Total kinetic energy [hartree]      0.245917596984E+03   0.231217905740E+03
 MD| QM kinetic energy [hartree]         0.157566814179E+00   0.131235517900E+00
 MD| Total temperature [K]                       308.296084           289.867727
 MD| QM temperature [K]                          487.800052           406.282838
 MD| ***************************************************************************

  Translating the system in order to center the QM fragment in the QM box.

 Number of electrons:                                                        180
 Number of occupied orbitals:                                                 90
 Number of molecular orbitals:                                                90

 Number of orbital functions:                                               1067
 Number of independent orbital functions:                                   1067

 Extrapolation method: ASPC


 SCF WAVEFUNCTION OPTIMIZATION

  ----------------------------------- OT ---------------------------------------
  Minimizer      : DIIS                : direct inversion
                                         in the iterative subspace
                                         using   7 DIIS vectors
                                         safer DIIS on
  Preconditioner : FULL_ALL            : diagonalization, state selective
  Precond_solver : DEFAULT
  stepsize       :    0.15000000                  energy_gap     :    0.08000000
  eps_taylor     :   0.10000E-15                  max_taylor     :             4
  ----------------------------------- OT ---------------------------------------

  Step     Update method      Time    Convergence         Total energy    Change
  ------------------------------------------------------------------------------
  Decoupling Energy:                                               0.0372439733
  Recoupling Energy:                                              -0.0063762172
     1 OT DIIS     0.15E+00    4.5     0.00048879      -253.1925257020 -2.53E+02
  Decoupling Energy:                                               0.0372419459
  Recoupling Energy:                                              -0.0063762266
     2 OT DIIS     0.15E+00    1.1     0.00019184      -253.1946671291 -2.14E-03
  Decoupling Energy:                                               0.0372397072
  Recoupling Energy:                                              -0.0063761954
     3 OT DIIS     0.15E+00    1.1     0.00008066      -253.1950231301 -3.56E-04
  Decoupling Energy:                                               0.0372398313
  Recoupling Energy:                                              -0.0063761983
     4 OT DIIS     0.15E+00    1.1     0.00002257      -253.1950818669 -5.87E-05
  Decoupling Energy:                                               0.0372388081
  Recoupling Energy:                                              -0.0063761872
     5 OT DIIS     0.15E+00    1.1     0.00000840      -253.1950844498 -2.58E-06
  Decoupling Energy:                                               0.0372394849
  Recoupling Energy:                                              -0.0063761929
     6 OT DIIS     0.15E+00    1.1     0.00000288      -253.1950848093 -3.59E-07
  Decoupling Energy:                                               0.0372392310
  Recoupling Energy:                                              -0.0063761905
     7 OT DIIS     0.15E+00    1.1     0.00000085      -253.1950848502 -4.09E-08

  *** SCF run converged in     7 steps ***


  Electronic density on regular grids:       -180.0000000000       -0.0000000000
  Core density on regular grids:              180.9999999999       -0.0000000001
  Total charge density on r-space grids:        0.9999999998
  Total charge density g-space grids:           0.9999999998

  Overlap energy of the core charge distribution:               0.00001843302705
  Self energy of the core charge distribution:               -615.71576003586028
  Core Hamiltonian energy:                                    191.21896734776777
  Hartree energy:                                             248.05852283298196
  Exchange-correlation energy:                                -61.40903258477957
  Hartree-Fock Exchange energy:                               -18.11645577518408
  QM/MM Electrostatic energy:                                   2.76865493187367

  Total energy:                                              -253.19508485017343

  outer SCF iter =    1 RMS gradient =   0.85E-06 energy =       -253.1950848502
  outer SCF loop converged in   1 iterations or    7 steps

  Decoupling Energy:                                               0.0372392255
  Recoupling Energy:                                              -0.0063761903

 ENERGY| Total FORCE_EVAL ( QMMM ) energy [a.u.]:          -1057.339964738976050

 MD| ***************************************************************************
 MD| Step number                                                               6
 MD| Time [fs]                                                          6.000000
 MD| Conserved quantity [hartree]                            -0.842900322934E+03
 MD| ---------------------------------------------------------------------------
 MD|                                          Instantaneous             Averages
 MD| CPU time per MD step [s]                     45.046068            54.720825
 MD| Energy drift per atom [K]           0.111144446293E+02   0.671968659708E+01
 MD| Potential energy [hartree]         -0.105733996474E+04  -0.107243400947E+04
 MD| Total kinetic energy [hartree]      0.214439641805E+03   0.228421528417E+03
 MD| QM kinetic energy [hartree]         0.141133475961E+00   0.132885177577E+00
 MD| Total temperature [K]                       268.833555           286.362032
 MD| QM temperature [K]                          436.925232           411.389904
 MD| ***************************************************************************

 -------------------------------------------------------------------------------
 -                                                                             -
 -                                DBCSR STATISTICS                             -
 -                                                                             -
 -------------------------------------------------------------------------------
 COUNTER                                    TOTAL       BLAS       SMM       ACC
 flops     9 x    26 x    26              2810808     100.0%      0.0%      0.0%
 flops    22 x    26 x    26              7287280     100.0%      0.0%      0.0%
 flops     9 x    32 x    32              8515584     100.0%      0.0%      0.0%
 flops    31 x    26 x    26             11735360     100.0%      0.0%      0.0%
 flops    26 x    26 x    26             13709280     100.0%      0.0%      0.0%
 flops    22 x    32 x    32             22077440     100.0%      0.0%      0.0%
 flops    31 x    26 x    32             28887040     100.0%      0.0%      0.0%
 flops    31 x    32 x    26             28887040     100.0%      0.0%      0.0%
 flops    80 x    26 x    26             30284800     100.0%      0.0%      0.0%
 flops    26 x    26 x    32             33745920     100.0%      0.0%      0.0%
 flops    26 x    32 x    26             33745920     100.0%      0.0%      0.0%
 flops    32 x    26 x    26             33745920     100.0%      0.0%      0.0%
 flops   106 x    26 x    26             40127360     100.0%      0.0%      0.0%
 flops    53 x    26 x    26             40127360     100.0%      0.0%      0.0%
 flops    31 x    26 x    75             45700200     100.0%      0.0%      0.0%
 flops    71 x    26 x    26             53755520     100.0%      0.0%      0.0%
 flops    31 x    26 x    71             57683808     100.0%      0.0%      0.0%
 flops    84 x    26 x    26             63598080     100.0%      0.0%      0.0%
 flops    26 x    26 x    75             70270200     100.0%      0.0%      0.0%
 flops    31 x    32 x    32             71106560     100.0%      0.0%      0.0%
 flops    80 x    26 x    32             74547200     100.0%      0.0%      0.0%
 flops    80 x    32 x    26             74547200     100.0%      0.0%      0.0%
 flops    32 x    32 x    26             83066880     100.0%      0.0%      0.0%
 flops    26 x    32 x    32             83066880     100.0%      0.0%      0.0%
 flops    32 x    26 x    32             83066880     100.0%      0.0%      0.0%
 flops    26 x    26 x    71             88696608     100.0%      0.0%      0.0%
 flops    53 x    32 x    26             98775040     100.0%      0.0%      0.0%
 flops   106 x    26 x    32             98775040     100.0%      0.0%      0.0%
 flops   106 x    32 x    26             98775040     100.0%      0.0%      0.0%
 flops    53 x    26 x    32             98775040     100.0%      0.0%      0.0%
 flops    31 x    32 x    75            112492800     100.0%      0.0%      0.0%
 flops    31 x    26 x    62            113336496     100.0%      0.0%      0.0%
 flops    80 x    26 x    75            117936000     100.0%      0.0%      0.0%
 flops    71 x    26 x    32            132321280     100.0%      0.0%      0.0%
 flops    71 x    32 x    26            132321280     100.0%      0.0%      0.0%
 flops    31 x    32 x    71            141990912     100.0%      0.0%      0.0%
 flops    80 x    26 x    71            148861440     100.0%      0.0%      0.0%
 flops   106 x    26 x    75            156265200     100.0%      0.0%      0.0%
 flops    53 x    26 x    75            156265200     100.0%      0.0%      0.0%
 flops    84 x    32 x    26            156549120     100.0%      0.0%      0.0%
 flops    84 x    26 x    32            156549120     100.0%      0.0%      0.0%
 flops    62 x    26 x    26            164295040     100.0%      0.0%      0.0%
 flops     9 x     9 x    26            165405240     100.0%      0.0%      0.0%
 flops    26 x    32 x    75            172972800     100.0%      0.0%      0.0%
 flops    32 x    26 x    75            172972800     100.0%      0.0%      0.0%
 flops    26 x    26 x    62            174270096     100.0%      0.0%      0.0%
 flops    80 x    32 x    32            183500800     100.0%      0.0%      0.0%
 flops   106 x    26 x    71            197241408     100.0%      0.0%      0.0%
 flops    53 x    26 x    71            197241408     100.0%      0.0%      0.0%
 flops    32 x    32 x    32            204472320     100.0%      0.0%      0.0%
 flops    71 x    26 x    75            209336400     100.0%      0.0%      0.0%
 flops    26 x    32 x    71            218330112     100.0%      0.0%      0.0%
 flops    32 x    26 x    71            218330112     100.0%      0.0%      0.0%
 flops    53 x    32 x    32            243138560     100.0%      0.0%      0.0%
 flops   106 x    32 x    32            243138560     100.0%      0.0%      0.0%
 flops    84 x    26 x    75            247665600     100.0%      0.0%      0.0%
 flops    71 x    26 x    71            264229056     100.0%      0.0%      0.0%
 flops    31 x    32 x    62            278982144     100.0%      0.0%      0.0%
 flops    80 x    32 x    75            290304000     100.0%      0.0%      0.0%
 flops    80 x    26 x    62            292481280     100.0%      0.0%      0.0%
 flops    84 x    26 x    71            312609024     100.0%      0.0%      0.0%
 flops    71 x    32 x    32            325713920     100.0%      0.0%      0.0%
 flops    80 x    32 x    71            366428160     100.0%      0.0%      0.0%
 flops    53 x    32 x    75            384652800     100.0%      0.0%      0.0%
 flops   106 x    32 x    75            384652800     100.0%      0.0%      0.0%
 flops    84 x    32 x    32            385351680     100.0%      0.0%      0.0%
 flops   106 x    26 x    62            387537696     100.0%      0.0%      0.0%
 flops    53 x    26 x    62            387537696     100.0%      0.0%      0.0%
 flops    62 x    26 x    32            404418560     100.0%      0.0%      0.0%
 flops    62 x    32 x    26            404418560     100.0%      0.0%      0.0%
 flops     9 x     9 x    32            407151360     100.0%      0.0%      0.0%
 flops    22 x     9 x    26            415855440     100.0%      0.0%      0.0%
 flops     9 x    22 x    26            416576160     100.0%      0.0%      0.0%
 flops    32 x    32 x    75            425779200     100.0%      0.0%      0.0%
 flops    26 x    32 x    62            428972544     100.0%      0.0%      0.0%
 flops    32 x    26 x    62            428972544     100.0%      0.0%      0.0%
 flops    53 x    32 x    71            485517312     100.0%      0.0%      0.0%
 flops   106 x    32 x    71            485517312     100.0%      0.0%      0.0%
 flops    71 x    32 x    75            515289600     100.0%      0.0%      0.0%
 flops    71 x    26 x    62            519154272     100.0%      0.0%      0.0%
 flops    32 x    32 x    71            537427968     100.0%      0.0%      0.0%
 flops    84 x    32 x    75            609638400     100.0%      0.0%      0.0%
 flops    84 x    26 x    62            614210688     100.0%      0.0%      0.0%
 flops    62 x    26 x    75            639802800     100.0%      0.0%      0.0%
 flops    71 x    32 x    71            650409984     100.0%      0.0%      0.0%
 flops    80 x    32 x    62            719953920     100.0%      0.0%      0.0%
 flops    84 x    32 x    71            769499136     100.0%      0.0%      0.0%
 flops     9 x    26 x     9            802701900     100.0%      0.0%      0.0%
 flops    62 x    26 x    71            807573312     100.0%      0.0%      0.0%
 flops    53 x    32 x    62            953938944     100.0%      0.0%      0.0%
 flops   106 x    32 x    62            953938944     100.0%      0.0%      0.0%
 flops    62 x    32 x    32            995491840     100.0%      0.0%      0.0%
 flops    22 x     9 x    32           1023644160     100.0%      0.0%      0.0%
 flops     9 x    22 x    32           1025418240     100.0%      0.0%      0.0%
 flops    32 x    32 x    62           1055932416     100.0%      0.0%      0.0%
 flops    22 x    22 x    26           1109908800     100.0%      0.0%      0.0%
 flops    71 x    32 x    62           1277918208     100.0%      0.0%      0.0%
 flops    84 x    32 x    62           1511903232     100.0%      0.0%      0.0%
 flops    62 x    32 x    75           1574899200     100.0%      0.0%      0.0%
 flops    62 x    26 x    62           1586710944     100.0%      0.0%      0.0%
 flops     9 x    32 x     9           1975881600     100.0%      0.0%      0.0%
 flops    62 x    32 x    71           1987872768     100.0%      0.0%      0.0%
 flops     9 x    26 x    22           2081079000     100.0%      0.0%      0.0%
 flops    22 x    26 x     9           2081079000     100.0%      0.0%      0.0%
 flops    22 x    22 x    32           2732083200     100.0%      0.0%      0.0%
 flops    62 x    32 x    62           3905750016     100.0%      0.0%      0.0%
 flops     9 x    32 x    22           5122656000     100.0%      0.0%      0.0%
 flops    22 x    32 x     9           5122656000     100.0%      0.0%      0.0%
 flops    22 x    26 x    22           5395390000     100.0%      0.0%      0.0%
 flops    22 x    32 x    22          13280960000     100.0%      0.0%      0.0%
 flops inhomo. stacks                           0       0.0%      0.0%      0.0%
 flops total                        78.421527E+09     100.0%      0.0%      0.0%
 flops max/rank                      3.694330E+09     100.0%      0.0%      0.0%
 matmuls inhomo. stacks                         0       0.0%      0.0%      0.0%
 matmuls total                            3102570     100.0%      0.0%      0.0%
 number of processed stacks                899754     100.0%      0.0%      0.0%
 average stack size                                     3.4       0.0       0.0
 marketing flops                    85.671830E+09
 -------------------------------------------------------------------------------
 # multiplications                           1286
 max memory usage/rank               1.859719E+09
 # max total images/rank                        2
 # max 3D layers                                1
 # MPI messages exchanged                 4773632
 MPI messages size (bytes):
  total size                        51.820175E+09
  min size                           0.000000E+00
  max size                          85.200000E+03
  average size                      10.855503E+03
 MPI breakdown and total messages size (bytes):
             size <=      128             3603593                        0
       128 < size <=     8192               95007                684059808
      8192 < size <=    32768              432852               7767738720
     32768 < size <=   131072              642180              43367724120
    131072 < size <=  4194304                   0                        0
   4194304 < size <= 16777216                   0                        0
  16777216 < size                               0                        0
 -------------------------------------------------------------------------------

 *** WARNING in dbcsr_mm.F:294 :: Using a non-square number of MPI ranks ***
 *** might lead to poor performance. Used ranks: 128 Suggested: 121 256  ***

 -------------------------------------------------------------------------------
 -                                                                             -
 -                      DBCSR MESSAGE PASSING PERFORMANCE                      -
 -                                                                             -
 -------------------------------------------------------------------------------
 ROUTINE             CALLS      AVE VOLUME [Bytes]
 MP_Bcast              111                     12.
 MP_Allreduce         6970                      9.
 MP_Alltoall          5344                  28114.
 MP_ISend            80908                   7493.
 MP_IRecv            80446                   7121.
 -------------------------------------------------------------------------------

 -------------------------------------------------------------------------------
 -                                                                             -
 -                                GRID STATISTICS                              -
 -                                                                             -
 -------------------------------------------------------------------------------
 LP    KERNEL             BACKEND                              COUNT     PERCENT
 2     collocate ortho    REF                                1126269      18.85%
 2     integrate ortho    REF                                1106014      18.52%
 1     collocate ortho    REF                                 943978      15.80%
 1     integrate ortho    REF                                 870340      14.57%
 3     integrate ortho    REF                                 570062       9.54%
 3     collocate ortho    REF                                 500530       8.38%
 0     collocate ortho    REF                                 281245       4.71%
 0     integrate ortho    REF                                 249988       4.18%
 4     integrate ortho    REF                                 121240       2.03%
 4     collocate ortho    REF                                  73823       1.24%
 0     collocate general  REF                                  60928       1.02%
 1     integrate general  REF                                  60928       1.02%
 5     integrate ortho    REF                                   8201       0.14%
 -------------------------------------------------------------------------------

 MEMORY| Estimated peak process memory [MiB]                                1858

 -------------------------------------------------------------------------------
 -                                                                             -
 -                         MESSAGE PASSING PERFORMANCE                         -
 -                                                                             -
 -------------------------------------------------------------------------------

 ROUTINE             CALLS      AVE VOLUME [Bytes]
 MP_Group                8
 MP_Bcast             6942               10565486.
 MP_Allreduce         2477                1659307.
 MP_Sync               437
 MP_Alltoall          1344                9929722.
 MP_ISendRecv        52451                  37933.
 MP_Wait             64932
 MP_comm_split          21
 MP_ISend            11347                 231818.
 MP_IRecv            11172                 234911.
 MP_Recv                98                  51216.
 -------------------------------------------------------------------------------


 -------------------------------------------------------------------------------
 -                                                                             -
 -                           R E F E R E N C E S                               -
 -                                                                             -
 -------------------------------------------------------------------------------
 
 CP2K version 8.2, the CP2K developers group (2021).
 CP2K is freely available from https://www.cp2k.org/ .

 Kuehne,Thomas D.; Iannuzzi,Marcella; Del Ben,Mauro;
 Rybkin,Vladimir V.; Seewald,Patrick; Stein,Frederick; Laino,Teodoro;
 Khaliullin,Rustam Z.; Schuett,Ole; Schiffmann,Florian; Golze,Dorothea;
 Wilhelm,Jan; Chulkov,Sergey; Bani-Hashemian,Mohammad Hossein;
 Weber,Valery; Borstnik,Urban; Taillefumier,Mathieu;
 Jakobovits,Alice Shoshana; Lazzaro,Alfio; Pabst,Hans; Mueller,Tiziano;
 Schade,Robert; Guidon,Manuel; Andermatt,Samuel; Holmberg,Nico;
 Schenter,Gregory K.; Hehn,Anna; Bussy,Augustin; Belleflamme,Fabian;
 Tabacchi,Gloria; Gloess,Andreas; Lass,Michael; Bethune,Iain;
 Mundy,Christopher J.; Plessl,Christian; Watkins,Matt;
 VandeVondele,Joost; Krack,Matthias; Hutter,Juerg. 
 The Journal of Chemical Physics, 152 (19), (2020). 
 CP2K: An electronic structure and molecular dynamics software package -
 Quickstep: Efficient and accurate electronic structure calculations.
 https://doi.org/10.1063/5.0007045

 Schuett, Ole; Messmer, Peter; Hutter, Juerg; VandeVondele, Joost. 
 Electronic Structure Calculations on Graphics Processing Units, John
 Wiley & Sons, Ltd, 173-190 (2016). 
 GPU-Accelerated Sparse Matrix-Matrix Multiplication for
 Linear Scaling Density Functional Theory.
 https://doi.org/10.1002/9781118670712.ch8

 Borstnik, U; VandeVondele, J; Weber, V; Hutter, J. 
 PARALLEL COMPUTING, 40 (5-6), 47-58 (2014). 
 Sparse matrix multiplication: The distributed block-compressed sparse
 row library.
 https://doi.org/10.1016/j.parco.2014.03.012

 Hutter, J; Iannuzzi, M; Schiffmann, F; VandeVondele, J. 
 WIREs Comput Mol Sci., 4 (1), 15-25 (2014). 
 CP2K: atomistic simulations of condensed matter systems.
 https://doi.org/10.1002/wcms.1159

 Marek, A; Blum, V; Johanni, R; Havu, V; Lang, B; Auckenthaler, T;
 Heinecke, A; Bungartz, H; Lederer, H. 
 Journal of Physics: Condensed Matter, 26 (21), (2014). 
 The ELPA library: scalable parallel eigenvalue solutions for
 electronic structure
 theory and computational science.
 https://doi.org/10.1088/0953-8984/26/21/213201

 Guidon, M; Hutter, J; VandeVondele, J. 
 JOURNAL OF CHEMICAL THEORY AND COMPUTATION, 5 (11), 3010-3021 (2009). 
 Robust Periodic Hartree-Fock Exchange for Large-Scale Simulations Using
 Gaussian Basis Sets.
 https://doi.org/10.1021/ct900494g

 Guidon, M; Schiffmann, F; Hutter, J; VandeVondele, J. 
 JOURNAL OF CHEMICAL PHYSICS, 128 (21), 214104 (2008). 
 Ab initio molecular dynamics using hybrid density functionals.
 https://doi.org/10.1063/1.2931945

 Kuhne, TD; Krack, M; Mohamed, FR; Parrinello, M. 
 PHYSICAL REVIEW LETTERS, 98 (6), 066401 (2007). 
 Efficient and accurate Car-Parrinello-like approach to
 Born-Oppenheimer molecular dynamics.
 https://doi.org/10.1103/PhysRevLett.98.066401

 Laino, T; Mohamed, F; Laio, A; Parrinello, M. 
 JOURNAL OF CHEMICAL THEORY AND COMPUTATION, 2 (5), 1370-1378 (2006). 
 An efficient linear-scaling electrostatic coupling for treating
 periodic boundary conditions in QM/MM simulations.
 https://doi.org/10.1021/ct6001169

 Laino, T; Mohamed, F; Laio, A; Parrinello, M. 
 JOURNAL OF CHEMICAL THEORY AND COMPUTATION, 1 (6), 1176-1184 (2005). 
 An efficient real space multigrid QM/MM electrostatic coupling.
 https://doi.org/10.1021/ct050123f

 Krack, M. 
 THEORETICAL CHEMISTRY ACCOUNTS, 114 (1-3), 145-152 (2005). 
 Pseudopotentials for H to Kr optimized for gradient-corrected
 exchange-correlation functionals.
 https://doi.org/10.1007/s00214-005-0655-y

 VandeVondele, J; Krack, M; Mohamed, F; Parrinello, M; Chassaing, T;
 Hutter, J. COMPUTER PHYSICS COMMUNICATIONS, 167 (2), 103-128 (2005). 
 QUICKSTEP: Fast and accurate density functional calculations using a
 mixed Gaussian and plane waves approach.
 https://doi.org/10.1016/j.cpc.2004.12.014

 Frigo, M; Johnson, SG. 
 PROCEEDINGS OF THE IEEE, 93 (2), 216-231 (2005). 
 The design and implementation of FFTW3.
 https://doi.org/10.1109/JPROC.2004.840301

 Kolafa, J. 
 JOURNAL OF COMPUTATIONAL CHEMISTRY, 25 (3), 335-342 (2004). 
 Time-reversible always stable predictor-corrector method for molecular dynamics of polarizable molecules.
 https://doi.org/10.1002/jcc.10385

 VandeVondele, J; Hutter, J. 
 JOURNAL OF CHEMICAL PHYSICS, 118 (10), 4365-4369 (2003). 
 An efficient orbital transformation method for electronic structure
 calculations.
 https://doi.org/10.1063/1.1543154

 Hartwigsen, C; Goedecker, S; Hutter, J. 
 PHYSICAL REVIEW B, 58 (7), 3641-3662 (1998). 
 Relativistic separable dual-space Gaussian pseudopotentials from H to Rn.
 https://doi.org/10.1103/PhysRevB.58.3641

 Lippert, G; Hutter, J; Parrinello, M. 
 MOLECULAR PHYSICS, 92 (3), 477-487 (1997). 
 A hybrid Gaussian and plane wave density functional scheme.
 https://doi.org/10.1080/002689797170220

 Perdew, JP; Burke, K; Ernzerhof, M. 
 PHYSICAL REVIEW LETTERS, 77 (18), 3865-3868 (1996). 
 Generalized gradient approximation made simple.
 https://doi.org/10.1103/PhysRevLett.77.3865

 Goedecker, S; Teter, M; Hutter, J. 
 PHYSICAL REVIEW B, 54 (3), 1703-1710 (1996). 
 Separable dual-space Gaussian pseudopotentials.
 https://doi.org/10.1103/PhysRevB.54.1703

 ESSMANN, U; PERERA, L; BERKOWITZ, ML; DARDEN, T; LEE, H; PEDERSEN, LG. 
 JOURNAL OF CHEMICAL PHYSICS, 103 (19), 8577-8593 (1995). 
 A SMOOTH PARTICLE MESH EWALD METHOD.
 https://doi.org/10.1063/1.470117

 BLOCHL, PE. 
 JOURNAL OF CHEMICAL PHYSICS, 103 (17), 7422-7428 (1995). 
 ELECTROSTATIC DECOUPLING OF PERIODIC IMAGES OF PLANE-WAVE-EXPANDED
 DENSITIES AND DERIVED ATOMIC POINT CHARGES.
 https://doi.org/10.1063/1.470314


 -------------------------------------------------------------------------------
 -                                                                             -
 -                                T I M I N G                                  -
 -                                                                             -
 -------------------------------------------------------------------------------
 SUBROUTINE                       CALLS  ASD         SELF TIME        TOTAL TIME
                                MAXIMUM       AVERAGE  MAXIMUM  AVERAGE  MAXIMUM
 CP2K                                 1  1.0    0.287    0.304  374.888  374.889
 qs_mol_dyn_low                       1  2.0    0.015    0.017  329.221  330.869
 velocity_verlet                      6  3.0    0.060    0.062  275.371  275.392
 qs_forces                            7  3.9    0.001    0.001  168.112  168.114
 rebuild_ks_matrix                   63  8.5    0.000    0.001  152.962  152.977
 qs_ks_build_kohn_sham_matrix        63  9.5    0.010    0.013  152.962  152.976
 hfx_ks_matrix                       63 10.5    0.003    0.003  125.321  125.331
 qs_energies                          7  4.9    0.001    0.001   90.838   90.841
 scf_env_do_scf                       7  5.9    0.000    0.001   88.410   88.410
 qmmm_forces                          7  3.9    0.059    0.064   85.818   85.821
 qmmm_forces_with_gaussian            7  4.9    2.390    2.415   84.487   85.410
 qs_ks_update_qs_env_forces           7  4.9    0.000    0.000   77.164   77.165
 qs_ks_update_qs_env                 63  7.8    0.001    0.001   75.805   75.818
 derivatives_four_center              7  8.9    0.017    0.281   70.459   70.459
 derivatives_four_center_main         7  9.9    0.102    0.291   70.005   70.006
 derivatives_four_center_bin        558 10.9   67.346   69.887   67.346   69.887
 qmmm_el_coupling                     7  3.9    0.000    0.000   67.511   67.744
 qmmm_elec_with_gaussian              7  4.9    2.009    2.268   67.505   67.739
 integrate_four_center               63 11.5    3.111    3.439   54.854   54.864
 scf_env_do_scf_inner_loop           56  6.8    0.001    0.003   54.663   54.677
 integrate_four_center_main          63 12.5    0.081    0.193   46.826   48.135
 integrate_four_center_bin         4210 13.5   46.745   48.052   46.745   48.052
 qmmm_env_create                      1  2.0    7.899    8.027   43.706   43.707
 pw_restrict_s3                      21  5.9    9.320    9.634   40.328   40.691
 pw_integral_ab                    2967  7.5   34.412   35.479   34.605   35.735
 init_scf_loop                        7  6.9    0.000    0.000   33.728   33.729
 qmmm_force_with_gaussian_low         7  5.9    0.000    0.000   30.958   31.682
 fist_init                            1  3.0    0.000    0.000   31.579   31.579
 qmmm_elec_with_gaussian:spline       7  5.9    0.000    0.000   29.811   30.046
 pw_prolongate_s3                    21  6.9    6.932    7.078   29.811   30.046
 qmmm_forces_gaussian_low_R           7  6.9    0.000    0.000   25.894   26.578
 qmmm_forces_with_gaussian_LG         7  7.9   25.894   26.578   25.894   26.578
 mp_sum_dm3                          38  5.7   24.257   24.882   24.257   24.882
 qmmm_elec_with_gaussian_low          7  5.9    0.000    0.000   22.268   23.221
 pw_transfer                       1337 12.0    0.120    0.160   19.399   20.373
 fft_wrap_pw1pw2                   1113 13.1    0.013    0.016   18.992   19.966
 qmmm_elec_gaussian_low_R             7  6.9    0.000    0.000   18.664   19.660
 qmmm_elec_with_gaussian_LG           7  7.9   18.664   19.660   18.664   19.660
 fft_wrap_pw1pw2_200                707 14.4    1.663    2.096   17.463   18.444
 force_field_control                  1  4.0    0.000    0.000   17.327   17.598
 fft3d_ps                          1113 15.1    6.449    7.323   15.298   16.234
 rdparm_amber_8                       2  6.5   12.747   12.956   15.141   15.260
 qs_vxc_create                       63 10.5    0.001    0.002   14.445   14.449
 xc_vxc_pw_create                    63 11.5    0.261    0.362   14.443   14.448
 topology_control                     1  4.0    0.000    0.000   13.993   14.145
 qs_rho_update_rho                   63  7.9    0.001    0.001   11.256   11.267
 calculate_rho_elec                  63  8.9    0.061    0.075   11.255   11.266
 force_field_pack                     1  5.0    0.009    0.013   10.190   10.430
 rs_pw_transfer                     546 11.8    0.011    0.013    9.041   10.092
 pw_zero                           2442  7.3    8.887    9.452    8.887    9.452
 sum_up_and_integrate                63 10.5    0.071    0.096    9.295    9.312
 density_rs2pw                       63  9.9    0.003    0.004    8.261    9.281
 integrate_v_rspace                  63 11.5    0.002    0.003    9.225    9.255
 mp_alltoall_z22v                  1113 17.1    7.549    9.188    7.549    9.188
 pw_axpy                           1914  8.3    7.811    8.458    7.811    8.458
 connectivity_control                 2  4.0    0.000    0.001    8.297    8.309
 read_connectivity_amber              1  6.0    0.000    0.000    8.126    8.130
 xc_rho_set_and_dset_create          63 12.5    0.124    0.136    6.533    7.619
 -------------------------------------------------------------------------------

 The number of warnings for this run is : 1
 
 -------------------------------------------------------------------------------
  **** **** ******  **  PROGRAM ENDED AT                 2021-09-01 11:45:49.748
 ***** ** ***  *** **   PROGRAM RAN ON                                 nid001650
 **    ****   ******    PROGRAM RAN BY                                     hjbio
 ***** **    ** ** **   PROGRAM PROCESS ID                                185363
  **** **  *******  **  PROGRAM STOPPED IN /lus/cls01095/work/d118/d118/hjbio/qm
                                           mm-benchmarking/archer2/CPU/cp2kMD/CB
                                           D_PHY-PBE0/6STEPS/2NODES/128CPN/2THRE
                                           ADS
