 DBCSR| CPU Multiplication driver                                           BLAS
 DBCSR| Multrec recursion limit                                              512
 DBCSR| Multiplication stack size                                           1000
 DBCSR| Maximum elements for images                                    UNLIMITED
 DBCSR| Multiplicative factor virtual images                                   1
 DBCSR| Use multiplication densification                                       T
 DBCSR| Multiplication size stacks                                             3
 DBCSR| Use memory pool for CPU allocation                                     F
 DBCSR| Number of 3D layers                                               SINGLE
 DBCSR| Use MPI memory allocation                                              F
 DBCSR| Use RMA algorithm                                                      F
 DBCSR| Use Communication thread                                               T
 DBCSR| Communication thread load                                             75
 DBCSR| MPI: My node id                                                        0
 DBCSR| MPI: Number of nodes                                                   8
 DBCSR| OMP: Current number of threads                                         4
 DBCSR| OMP: Max number of threads                                             4
 DBCSR| Split modifier for TAS multiplication algorithm                  1.0E+00


  **** **** ******  **  PROGRAM STARTED AT               2021-08-31 16:35:53.699
 ***** ** ***  *** **   PROGRAM STARTED ON                             nid001637
 **    ****   ******    PROGRAM STARTED BY                                 hjbio
 ***** **    ** ** **   PROGRAM PROCESS ID                                188814
  **** **  *******  **  PROGRAM STARTED IN /lus/cls01095/work/d118/d118/hjbio/qm
                                           mm-benchmarking/archer2/CPU/cp2kMD/CB
                                           D_PHY-PBE0/6STEPS/1NODES/32CPN/4THREA
                                           DS

 CP2K| version string:                                          CP2K version 8.2
 CP2K| source code revision number:                                  git:310b7ab
 CP2K| cp2kflags: omp libint fftw3 libxc elpa parallel mpi3 scalapack plumed2   
 CP2K| is freely available from                            https://www.cp2k.org/
 CP2K| Program compiled at                          Thu 10 Jun 17:43:51 BST 2021
 CP2K| Program compiled on                                                 uan01
 CP2K| Program compiled for                                              ARCHER2
 CP2K| Data directory path              /work/d118/d118/hjbio/CP2K/cp2k-8.2/data
 CP2K| Input file name                                          CBD_PHY-cp2k.inp

 GLOBAL| Force Environment number                                              1
 GLOBAL| Basis set file name                                           HFX_BASIS
 GLOBAL| Potential file name                                           POTENTIAL
 GLOBAL| MM Potential file name                                     MM_POTENTIAL
 GLOBAL| Coordinate file name                                        CBD_PHY.pdb
 GLOBAL| Method name                                                        CP2K
 GLOBAL| Project name                                               CBD_PHY-PBE0
 GLOBAL| Run type                                                             MD
 GLOBAL| FFT library                                                       FFTW3
 GLOBAL| Diagonalization library                                            ELPA
 GLOBAL| Minimum number of eigenvectors for ELPA usage                        16
 GLOBAL| Orthonormality check for eigenvectors                          DISABLED
 GLOBAL| Matrix multiplication library                                    SCALAP
 GLOBAL| All-to-all communication in single precision                          F
 GLOBAL| FFTs using library dependent lengths                                  F
 GLOBAL| Grid backend                                                       AUTO
 GLOBAL| Global print level                                                  LOW
 GLOBAL| MPI I/O enabled                                                       T
 GLOBAL| Total number of message passing processes                             8
 GLOBAL| Number of threads for this process                                    4
 GLOBAL| This output is from process                                           0
 GLOBAL| CPU model name                          AMD EPYC 7742 64-Core Processor
 GLOBAL| CPUID                                                              1002

 MEMORY| system memory details [Kb]
 MEMORY|                        rank 0           min           max       average
 MEMORY| MemTotal            263568576     263568576     263568576     263568576
 MEMORY| MemFree             253526736     253526736     253526736     253526736
 MEMORY| Buffers                306284        306284        306284        306284
 MEMORY| Cached                1953280       1953280       1953280       1953280
 MEMORY| Slab                  1394640       1394640       1394640       1394640
 MEMORY| SReclaimable           208068        208068        208068        208068
 MEMORY| MemLikelyFree       255994368     255994368     255994368     255994368



                      ************* ******** ***********   
                     ************* **********************  
                     ****     **** ****      ***********   
                     ******** ****  *******     ****       
                     *******  ****   *******   ****        
                     ****     ****       ****  ****        
                     ****     **** **********  ****        
                      ****     **** ********    ****       
                     FRONTIERS IN SIMULATION TECHNOLOGY    
                                                           
                        C.J. Mundy, S. Balasubramanian,    
                     Ken Bagchi, J. Hutter, Ari Seitsonen  
                      IFW Kuo, T. Laino, J. VandeVondele   
                                 Version 1.0               

                                                           


 EWALD| Summation is done by:                                               SPME
 EWALD| Alpha parameter [       ANGSTROM^-1]                              0.4000
 EWALD| Real Space Cutoff [          ANGSTROM]                            8.4348
 EWALD| G-space max. Miller index                         80        80        80
 EWALD| Spline interpolation order                                             6

 FORCEFIELD| WARNING: A non Critical ForceField parameter is missing! CP2K GOES!
 FORCEFIELD| Non critical parameters are:Urey-Bradley,Torsions,Impropers, Opbends and 1-4
 FORCEFIELD| All missing parameters will not contribute to the potential energy!
 FORCEFIELD| Activate the print key FF_INFO to have a list of missing parameters

 CHARGE_INFO| Total Charge of the Classical System:                    -0.825808

 SPLINE_INFO| Generating 101926 splines for NONBONDED14 interactions 
              Due to 451 different atomic kinds
  ...10192  ...20384  ...30576  ...40768  ...50960  ...61152  ...71344  ...81536  ...91728  ...101920
 SPLINE_INFO| Number of unique splines computed:            301
 SPLINE_INFO| Done

 SPLINE_INFO| Generating 101926 splines for NONBONDED interactions 
              Due to 451 different atomic kinds
  ...10192  ...20384  ...30576  ...40768  ...50960  ...61152  ...71344  ...81536  ...91728  ...101920
 SPLINE_INFO| Number of unique splines computed:            301
 SPLINE_INFO| Done

 *******************************************************************************
 *******************************************************************************
 **                                                                           **
 **     #####                         ##              ##                      **
 **    ##   ##            ##          ##              ##                      **
 **   ##     ##                       ##            ######                    **
 **   ##     ##  ##   ##  ##   #####  ##  ##   ####   ##    #####    #####    **
 **   ##     ##  ##   ##  ##  ##      ## ##   ##      ##   ##   ##  ##   ##   **
 **   ##  ## ##  ##   ##  ##  ##      ####     ###    ##   ######   ######    **
 **    ##  ###   ##   ##  ##  ##      ## ##      ##   ##   ##       ##        **
 **     #######   #####   ##   #####  ##  ##  ####    ##    #####   ##        **
 **           ##                                                    ##        **
 **                                                                           **
 **                                                ... make the atoms dance   **
 **                                                                           **
 **            Copyright (C) by CP2K developers group (2000-2021)             **
 **                      J. Chem. Phys. 152, 194103 (2020)                    **
 **                                                                           **
 *******************************************************************************


 TOTAL NUMBERS AND MAXIMUM NUMBERS

  Total number of            - Atomic kinds:                                   5
                             - Atoms:                                         68
                             - Shell sets:                                   340
                             - Shells:                                       445
                             - Primitive Cartesian functions:                476
                             - Cartesian basis functions:                   1137
                             - Spherical basis functions:                   1067

  Maximum angular momentum of- Orbital basis functions:                        2
                             - Local part of the GTH pseudopotential:          2
                             - Non-local part of the GTH pseudopotential:      0


 SCF PARAMETERS         Density guess:                                   RESTART
                        --------------------------------------------------------
                        max_scf:                                              30
                        max_scf_history:                                       0
                        max_diis:                                              4
                        --------------------------------------------------------
                        eps_scf:                                        1.00E-06
                        eps_scf_history:                                0.00E+00
                        eps_diis:                                       1.00E-01
                        eps_eigval:                                     1.00E-05
                        --------------------------------------------------------
                        level_shift [a.u.]:                                 0.00
                        --------------------------------------------------------
                        Outer loop SCF in use 
                        No variables optimised in outer loop
                        eps_scf                                         1.00E-06
                        max_scf                                               20
                        No outer loop optimization
                        step_size                                       5.00E-01

 *******************************************************************************
 *******************************************************************************
 **                                                                           **
 **             #######  ##     ## ##     ## ##     ##                        **
 **            ##     ## ###   ### ###   ### ###   ###                        **
 **            ##     ## #### #### #### #### #### ####                        **
 **            ##     ## ## ### ## ## ### ## ## ### ##                        **
 **            ##  ## ## ##     ## ##     ## ##     ##                        **
 **            ##    ##  ##     ## ##     ## ##     ##  T.Laino and F.Mohamed **
 **             ##### ## ##     ## ##     ## ##     ##  2005 - 2015           **
 **                                                                           **
 **                                                     Calculation Started.. **
 *******************************************************************************
 *******************************************************************************

 MD_PAR| Molecular dynamics protocol (MD input parameters)
 MD_PAR| Ensemble type                                                       NVE
 MD_PAR| Number of time steps                                                  6
 MD_PAR| Time step [fs]                                                 1.000000
 MD_PAR| Temperature [K]                                              300.000000
 MD_PAR| Temperature tolerance [K]                                      0.000000
 MD_PAR| Print MD information every                                    1 step(s)
 MD_PAR| File type   Print frequency [steps]                          File names
 MD_PAR| Coordinates          1                           CBD_PHY-PBE0-pos-1.xyz
 MD_PAR| Velocities           1                           CBD_PHY-PBE0-vel-1.xyz
 MD_PAR| Energies             1                              CBD_PHY-PBE0-1.ener
 MD_PAR| Dump                20                           CBD_PHY-PBE0-1.restart

 ROT| Rotational analysis information
 ROT| Principal axes and moments of inertia [a.u.]
 ROT|                           1                   2                   3
 ROT| Eigenvalues      1.56283164001E+13   1.56407408488E+13   1.56663418804E+13
 ROT|      x              0.901637047331     -0.018153263569      0.432112362589
 ROT|      y              0.323714777231      0.690893927917     -0.646431994388
 ROT|      z             -0.286808957117      0.722728191915      0.628812040859
 ROT| Number of rotovibrational vectors                                        6

 DOF| Calculation of degrees of freedom
 DOF| Number of atoms                                                     167923
 DOF| Number of intramolecular constraints                                     0
 DOF| Number of intermolecular constraints                                     0
 DOF| Invariants (translations + rotations)                                    3
 DOF| Degrees of freedom                                                  503766

 DOF| Restraints information
 DOF| Number of intramolecular restraints                                      0
 DOF| Number of intermolecular restraints                                      0

 MD_VEL| Velocities initialization
 MD_VEL| Initial temperature [K]                                      300.000000
 MD_VEL| COM velocity            -0.0000000000     0.0000000000     0.0000000000

  Translating the system in order to center the QM fragment in the QM box.

 Number of electrons:                                                        180
 Number of occupied orbitals:                                                 90
 Number of molecular orbitals:                                                90

 Number of orbital functions:                                               1067
 Number of independent orbital functions:                                   1067

 Extrapolation method: initial_guess


 SCF WAVEFUNCTION OPTIMIZATION

  ----------------------------------- OT ---------------------------------------
  Minimizer      : DIIS                : direct inversion
                                         in the iterative subspace
                                         using   7 DIIS vectors
                                         safer DIIS on
  Preconditioner : FULL_ALL            : diagonalization, state selective
  Precond_solver : DEFAULT
  stepsize       :    0.15000000                  energy_gap     :    0.08000000
  eps_taylor     :   0.10000E-15                  max_taylor     :             4
  ----------------------------------- OT ---------------------------------------

  Step     Update method      Time    Convergence         Total energy    Change
  ------------------------------------------------------------------------------
  Decoupling Energy:                                               0.0370647021
  Recoupling Energy:                                              -0.0063741479
     1 OT DIIS     0.15E+00   31.2     0.00129057      -255.9257316521 -2.56E+02
  Decoupling Energy:                                               0.0370576004
  Recoupling Energy:                                              -0.0063740314
     2 OT DIIS     0.15E+00   13.9     0.00057761      -255.9419521977 -1.62E-02
  Decoupling Energy:                                               0.0369596417
  Recoupling Energy:                                              -0.0063730135
     3 OT DIIS     0.15E+00   13.9     0.00038348      -255.9451217318 -3.17E-03
  Decoupling Energy:                                               0.0369795470
  Recoupling Energy:                                              -0.0063732416
     4 OT DIIS     0.15E+00   13.9     0.00009866      -255.9458275768 -7.06E-04
  Decoupling Energy:                                               0.0369716948
  Recoupling Energy:                                              -0.0063731487
     5 OT DIIS     0.15E+00   13.9     0.00003992      -255.9458779686 -5.04E-05
  Decoupling Energy:                                               0.0369737640
  Recoupling Energy:                                              -0.0063731649
     6 OT DIIS     0.15E+00   13.9     0.00001793      -255.9458894170 -1.14E-05
  Decoupling Energy:                                               0.0369741808
  Recoupling Energy:                                              -0.0063731680
     7 OT DIIS     0.15E+00   13.9     0.00000621      -255.9458922938 -2.88E-06
  Decoupling Energy:                                               0.0369727127
  Recoupling Energy:                                              -0.0063731518
     8 OT DIIS     0.15E+00   13.9     0.00000242      -255.9458926328 -3.39E-07
  Decoupling Energy:                                               0.0369731061
  Recoupling Energy:                                              -0.0063731556
     9 OT DIIS     0.15E+00   13.9     0.00000111      -255.9458926822 -4.94E-08
  Decoupling Energy:                                               0.0369728228
  Recoupling Energy:                                              -0.0063731526
    10 OT DIIS     0.15E+00   13.9     0.00000048      -255.9458926924 -1.02E-08

  *** SCF run converged in    10 steps ***


  Electronic density on regular grids:       -179.9999999999        0.0000000001
  Core density on regular grids:              180.9999999999       -0.0000000001
  Total charge density on r-space grids:        1.0000000000
  Total charge density g-space grids:           1.0000000000

  Overlap energy of the core charge distribution:               0.00001951532734
  Self energy of the core charge distribution:               -615.71576003586028
  Core Hamiltonian energy:                                    191.01363220817694
  Hartree energy:                                             248.20663869015917
  Exchange-correlation energy:                                -61.38430761263344
  Hartree-Fock Exchange energy:                               -18.10821018492818
  QM/MM Electrostatic energy:                                   0.04209472735375

  Total energy:                                              -255.94589269240464

  outer SCF iter =    1 RMS gradient =   0.48E-06 energy =       -255.9458926924
  outer SCF loop converged in   1 iterations or   10 steps

  Decoupling Energy:                                               0.0369728028
  Recoupling Energy:                                              -0.0063731523

 ENERGY| Total FORCE_EVAL ( QMMM ) energy [a.u.]:          -1088.110859625255671

 MD_INI| MD initialization
 MD_INI| Potential energy [hartree]                          -0.108811085963E+04
 MD_INI| Total kinetic energy [hartree]                       0.239300084734E+03
 MD_INI| QM kinetic energy [hartree]                          0.106639360339E+00
 MD_INI| Total temperature [K]                                        300.000000
 MD_INI| QM temperature [K]                                           330.137318
 MD_INI| Cell volume [bohr^3]                                 1.137316355424E+07
 MD_INI| Cell volume [ang^3]                                  1.685328937712E+06
 MD_INI| Cell lengths [bohr]      2.24884969E+02  2.24884969E+02  2.24884969E+02
 MD_INI| Cell lengths [ang]       1.19004000E+02  1.19004000E+02  1.19004000E+02
 MD_INI| Cell angles [deg]        9.00000000E+01  9.00000000E+01  9.00000000E+01

  Translating the system in order to center the QM fragment in the QM box.

 Number of electrons:                                                        180
 Number of occupied orbitals:                                                 90
 Number of molecular orbitals:                                                90

 Number of orbital functions:                                               1067
 Number of independent orbital functions:                                   1067

 Extrapolation method: ASPC


 SCF WAVEFUNCTION OPTIMIZATION

  ----------------------------------- OT ---------------------------------------
  Minimizer      : DIIS                : direct inversion
                                         in the iterative subspace
                                         using   7 DIIS vectors
                                         safer DIIS on
  Preconditioner : FULL_ALL            : diagonalization, state selective
  Precond_solver : DEFAULT
  stepsize       :    0.15000000                  energy_gap     :    0.08000000
  eps_taylor     :   0.10000E-15                  max_taylor     :             4
  ----------------------------------- OT ---------------------------------------

  Step     Update method      Time    Convergence         Total energy    Change
  ------------------------------------------------------------------------------
  Decoupling Energy:                                               0.0370014667
  Recoupling Energy:                                              -0.0063734172
     1 OT DIIS     0.15E+00   27.3     0.00075899      -255.7182133670 -2.56E+02
  Decoupling Energy:                                               0.0370082384
  Recoupling Energy:                                              -0.0063735355
     2 OT DIIS     0.15E+00   14.8     0.00032685      -255.7237312467 -5.52E-03
  Decoupling Energy:                                               0.0370087410
  Recoupling Energy:                                              -0.0063735590
     3 OT DIIS     0.15E+00   14.8     0.00019068      -255.7247685778 -1.04E-03
  Decoupling Energy:                                               0.0370199881
  Recoupling Energy:                                              -0.0063736817
     4 OT DIIS     0.15E+00   14.8     0.00006054      -255.7249610148 -1.92E-04
  Decoupling Energy:                                               0.0370216761
  Recoupling Energy:                                              -0.0063737045
     5 OT DIIS     0.15E+00   14.8     0.00001954      -255.7249775795 -1.66E-05
  Decoupling Energy:                                               0.0370210004
  Recoupling Energy:                                              -0.0063736984
     6 OT DIIS     0.15E+00   14.8     0.00000817      -255.7249798379 -2.26E-06
  Decoupling Energy:                                               0.0370221928
  Recoupling Energy:                                              -0.0063737124
     7 OT DIIS     0.15E+00   14.8     0.00000308      -255.7249802999 -4.62E-07
  Decoupling Energy:                                               0.0370222381
  Recoupling Energy:                                              -0.0063737132
     8 OT DIIS     0.15E+00   14.8     0.00000136      -255.7249803772 -7.72E-08
  Decoupling Energy:                                               0.0370224657
  Recoupling Energy:                                              -0.0063737159
     9 OT DIIS     0.15E+00   14.8     0.00000058      -255.7249803929 -1.57E-08

  *** SCF run converged in     9 steps ***


  Electronic density on regular grids:       -180.0000000000        0.0000000000
  Core density on regular grids:              180.9999999999       -0.0000000001
  Total charge density on r-space grids:        0.9999999999
  Total charge density g-space grids:           0.9999999999

  Overlap energy of the core charge distribution:               0.00002422739645
  Self energy of the core charge distribution:               -615.71576003586028
  Core Hamiltonian energy:                                    191.21095004988371
  Hartree energy:                                             248.07774802702247
  Exchange-correlation energy:                                -61.42683492657078
  Hartree-Fock Exchange energy:                               -18.12283147728519
  QM/MM Electrostatic energy:                                   0.25172374250133

  Total energy:                                              -255.72498039291227

  outer SCF iter =    1 RMS gradient =   0.58E-06 energy =       -255.7249803929
  outer SCF loop converged in   1 iterations or    9 steps

  Decoupling Energy:                                               0.0370224943
  Recoupling Energy:                                              -0.0063737164

 ENERGY| Total FORCE_EVAL ( QMMM ) energy [a.u.]:          -1059.962356563365347

 MD| ***************************************************************************
 MD| Step number                                                               1
 MD| Time [fs]                                                          1.000000
 MD| Conserved quantity [hartree]                            -0.841461427172E+03
 MD| ---------------------------------------------------------------------------
 MD|                                          Instantaneous             Averages
 MD| CPU time per MD step [s]                    595.666702           595.666702
 MD| Energy drift per atom [K]           0.138202490935E+02   0.000000000000E+00
 MD| Potential energy [hartree]         -0.105996235656E+04  -0.105996235656E+04
 MD| Total kinetic energy [hartree]      0.218500929392E+03   0.218500929392E+03
 MD| QM kinetic energy [hartree]         0.121347266887E+00   0.121347266887E+00
 MD| Total temperature [K]                       273.925013           273.925013
 MD| QM temperature [K]                          375.670495           375.670495
 MD| ***************************************************************************

  Translating the system in order to center the QM fragment in the QM box.

 Number of electrons:                                                        180
 Number of occupied orbitals:                                                 90
 Number of molecular orbitals:                                                90

 Number of orbital functions:                                               1067
 Number of independent orbital functions:                                   1067

 Extrapolation method: ASPC


 SCF WAVEFUNCTION OPTIMIZATION

  ----------------------------------- OT ---------------------------------------
  Minimizer      : DIIS                : direct inversion
                                         in the iterative subspace
                                         using   7 DIIS vectors
                                         safer DIIS on
  Preconditioner : FULL_ALL            : diagonalization, state selective
  Precond_solver : DEFAULT
  stepsize       :    0.15000000                  energy_gap     :    0.08000000
  eps_taylor     :   0.10000E-15                  max_taylor     :             4
  ----------------------------------- OT ---------------------------------------

  Step     Update method      Time    Convergence         Total energy    Change
  ------------------------------------------------------------------------------
  Decoupling Energy:                                               0.0370781899
  Recoupling Energy:                                              -0.0063743357
     1 OT DIIS     0.15E+00   27.2     0.00029255      -255.3622523777 -2.55E+02
  Decoupling Energy:                                               0.0370714463
  Recoupling Energy:                                              -0.0063742686
     2 OT DIIS     0.15E+00   13.9     0.00012379      -255.3630881617 -8.36E-04
  Decoupling Energy:                                               0.0370747190
  Recoupling Energy:                                              -0.0063743003
     3 OT DIIS     0.15E+00   13.9     0.00005679      -255.3632554872 -1.67E-04
  Decoupling Energy:                                               0.0370720761
  Recoupling Energy:                                              -0.0063742776
     4 OT DIIS     0.15E+00   13.9     0.00001756      -255.3632742781 -1.88E-05
  Decoupling Energy:                                               0.0370725472
  Recoupling Energy:                                              -0.0063742816
     5 OT DIIS     0.15E+00   13.9     0.00000682      -255.3632758049 -1.53E-06
  Decoupling Energy:                                               0.0370729641
  Recoupling Energy:                                              -0.0063742866
     6 OT DIIS     0.15E+00   13.9     0.00000313      -255.3632760626 -2.58E-07
  Decoupling Energy:                                               0.0370729489
  Recoupling Energy:                                              -0.0063742866
     7 OT DIIS     0.15E+00   13.9     0.00000106      -255.3632761236 -6.10E-08
  Decoupling Energy:                                               0.0370730068
  Recoupling Energy:                                              -0.0063742873
     8 OT DIIS     0.15E+00   13.9     0.00000048      -255.3632761337 -1.02E-08

  *** SCF run converged in     8 steps ***


  Electronic density on regular grids:       -180.0000000000       -0.0000000000
  Core density on regular grids:              180.9999999999       -0.0000000001
  Total charge density on r-space grids:        0.9999999998
  Total charge density g-space grids:           0.9999999998

  Overlap energy of the core charge distribution:               0.00005088938943
  Self energy of the core charge distribution:               -615.71576003586028
  Core Hamiltonian energy:                                    191.44418213343198
  Hartree energy:                                             247.94137069538510
  Exchange-correlation energy:                                -61.47332448138432
  Hartree-Fock Exchange energy:                               -18.13880669103357
  QM/MM Electrostatic energy:                                   0.57901135635130

  Total energy:                                              -255.36327613372043

  outer SCF iter =    1 RMS gradient =   0.48E-06 energy =       -255.3632761337
  outer SCF loop converged in   1 iterations or    8 steps

  Decoupling Energy:                                               0.0370730235
  Recoupling Energy:                                              -0.0063742875

 ENERGY| Total FORCE_EVAL ( QMMM ) energy [a.u.]:          -1061.235329539147187

 MD| ***************************************************************************
 MD| Step number                                                               2
 MD| Time [fs]                                                          2.000000
 MD| Conserved quantity [hartree]                            -0.842817775315E+03
 MD| ---------------------------------------------------------------------------
 MD|                                          Instantaneous             Averages
 MD| CPU time per MD step [s]                    268.949574           432.308138
 MD| Energy drift per atom [K]           0.112696731901E+02   0.563483659503E+01
 MD| Potential energy [hartree]         -0.106123532954E+04  -0.106059884305E+04
 MD| Total kinetic energy [hartree]      0.218417554224E+03   0.218459241808E+03
 MD| QM kinetic energy [hartree]         0.111577701647E+00   0.116462484267E+00
 MD| Total temperature [K]                       273.820489           273.872751
 MD| QM temperature [K]                          345.425583           360.548039
 MD| ***************************************************************************

  Translating the system in order to center the QM fragment in the QM box.

 Number of electrons:                                                        180
 Number of occupied orbitals:                                                 90
 Number of molecular orbitals:                                                90

 Number of orbital functions:                                               1067
 Number of independent orbital functions:                                   1067

 Extrapolation method: ASPC


 SCF WAVEFUNCTION OPTIMIZATION

  ----------------------------------- OT ---------------------------------------
  Minimizer      : DIIS                : direct inversion
                                         in the iterative subspace
                                         using   7 DIIS vectors
                                         safer DIIS on
  Preconditioner : FULL_ALL            : diagonalization, state selective
  Precond_solver : DEFAULT
  stepsize       :    0.15000000                  energy_gap     :    0.08000000
  eps_taylor     :   0.10000E-15                  max_taylor     :             4
  ----------------------------------- OT ---------------------------------------

  Step     Update method      Time    Convergence         Total energy    Change
  ------------------------------------------------------------------------------
  Decoupling Energy:                                               0.0371230694
  Recoupling Energy:                                              -0.0063748333
     1 OT DIIS     0.15E+00   27.4     0.00057312      -254.8840264479 -2.55E+02
  Decoupling Energy:                                               0.0371263911
  Recoupling Energy:                                              -0.0063748789
     2 OT DIIS     0.15E+00   14.7     0.00022567      -254.8871523558 -3.13E-03
  Decoupling Energy:                                               0.0371270702
  Recoupling Energy:                                              -0.0063748844
     3 OT DIIS     0.15E+00   14.7     0.00008229      -254.8877077360 -5.55E-04
  Decoupling Energy:                                               0.0371223387
  Recoupling Energy:                                              -0.0063748374
     4 OT DIIS     0.15E+00   14.7     0.00002753      -254.8877579765 -5.02E-05
  Decoupling Energy:                                               0.0371233183
  Recoupling Energy:                                              -0.0063748478
     5 OT DIIS     0.15E+00   14.7     0.00001039      -254.8877617772 -3.80E-06
  Decoupling Energy:                                               0.0371231652
  Recoupling Energy:                                              -0.0063748451
     6 OT DIIS     0.15E+00   14.7     0.00000441      -254.8877623640 -5.87E-07
  Decoupling Energy:                                               0.0371230844
  Recoupling Energy:                                              -0.0063748446
     7 OT DIIS     0.15E+00   14.7     0.00000135      -254.8877624548 -9.08E-08
  Decoupling Energy:                                               0.0371230874
  Recoupling Energy:                                              -0.0063748447
     8 OT DIIS     0.15E+00   14.7     0.00000059      -254.8877624656 -1.08E-08

  *** SCF run converged in     8 steps ***


  Electronic density on regular grids:       -180.0000000003       -0.0000000003
  Core density on regular grids:              180.9999999999       -0.0000000001
  Total charge density on r-space grids:        0.9999999996
  Total charge density g-space grids:           0.9999999996

  Overlap energy of the core charge distribution:               0.00005124441732
  Self energy of the core charge distribution:               -615.71576003586028
  Core Hamiltonian energy:                                    191.49125592963256
  Hartree energy:                                             247.90728064775948
  Exchange-correlation energy:                                -61.48094518460530
  Hartree-Fock Exchange energy:                               -18.14140102850159
  QM/MM Electrostatic energy:                                   1.05175596151091

  Total energy:                                              -254.88776246564689

  outer SCF iter =    1 RMS gradient =   0.59E-06 energy =       -254.8877624656
  outer SCF loop converged in   1 iterations or    8 steps

  Decoupling Energy:                                               0.0371230871
  Recoupling Energy:                                              -0.0063748447

 ENERGY| Total FORCE_EVAL ( QMMM ) energy [a.u.]:          -1082.045340637279878

 MD| ***************************************************************************
 MD| Step number                                                               3
 MD| Time [fs]                                                          3.000000
 MD| Conserved quantity [hartree]                            -0.846392350646E+03
 MD| ---------------------------------------------------------------------------
 MD|                                          Instantaneous             Averages
 MD| CPU time per MD step [s]                    278.511302           381.042526
 MD| Energy drift per atom [K]           0.454778121241E+01   0.527248480082E+01
 MD| Potential energy [hartree]         -0.108204534064E+04  -0.106774767558E+04
 MD| Total kinetic energy [hartree]      0.235652989991E+03   0.224190491202E+03
 MD| QM kinetic energy [hartree]         0.117355790390E+00   0.116760252975E+00
 MD| Total temperature [K]                       295.427798           281.057767
 MD| QM temperature [K]                          363.313563           361.469880
 MD| ***************************************************************************

  Translating the system in order to center the QM fragment in the QM box.

 Number of electrons:                                                        180
 Number of occupied orbitals:                                                 90
 Number of molecular orbitals:                                                90

 Number of orbital functions:                                               1067
 Number of independent orbital functions:                                   1067

 Extrapolation method: ASPC


 SCF WAVEFUNCTION OPTIMIZATION

  ----------------------------------- OT ---------------------------------------
  Minimizer      : DIIS                : direct inversion
                                         in the iterative subspace
                                         using   7 DIIS vectors
                                         safer DIIS on
  Preconditioner : FULL_ALL            : diagonalization, state selective
  Precond_solver : DEFAULT
  stepsize       :    0.15000000                  energy_gap     :    0.08000000
  eps_taylor     :   0.10000E-15                  max_taylor     :             4
  ----------------------------------- OT ---------------------------------------

  Step     Update method      Time    Convergence         Total energy    Change
  ------------------------------------------------------------------------------
  Decoupling Energy:                                               0.0371656350
  Recoupling Energy:                                              -0.0063753296
     1 OT DIIS     0.15E+00   27.3     0.00026666      -254.3373018122 -2.54E+02
  Decoupling Energy:                                               0.0371742604
  Recoupling Energy:                                              -0.0063754099
     2 OT DIIS     0.15E+00   13.7     0.00010696      -254.3379925973 -6.91E-04
  Decoupling Energy:                                               0.0371691821
  Recoupling Energy:                                              -0.0063753577
     3 OT DIIS     0.15E+00   13.7     0.00004018      -254.3381207773 -1.28E-04
  Decoupling Energy:                                               0.0371714535
  Recoupling Energy:                                              -0.0063753810
     4 OT DIIS     0.15E+00   13.6     0.00001279      -254.3381306978 -9.92E-06
  Decoupling Energy:                                               0.0371702849
  Recoupling Energy:                                              -0.0063753696
     5 OT DIIS     0.15E+00   13.7     0.00000536      -254.3381315494 -8.52E-07
  Decoupling Energy:                                               0.0371705287
  Recoupling Energy:                                              -0.0063753714
     6 OT DIIS     0.15E+00   13.7     0.00000188      -254.3381316869 -1.38E-07
  Decoupling Energy:                                               0.0371705466
  Recoupling Energy:                                              -0.0063753718
     7 OT DIIS     0.15E+00   13.7     0.00000064      -254.3381317055 -1.86E-08

  *** SCF run converged in     7 steps ***


  Electronic density on regular grids:       -179.9999999999        0.0000000001
  Core density on regular grids:              180.9999999999       -0.0000000001
  Total charge density on r-space grids:        1.0000000000
  Total charge density g-space grids:           1.0000000000

  Overlap energy of the core charge distribution:               0.00002358477572
  Self energy of the core charge distribution:               -615.71576003586028
  Core Hamiltonian energy:                                    191.34733466754321
  Hartree energy:                                             247.97609022386550
  Exchange-correlation energy:                                -61.44937146086914
  Hartree-Fock Exchange energy:                               -18.13041927628145
  QM/MM Electrostatic energy:                                   1.63397059136557

  Total energy:                                              -254.33813170546088

  outer SCF iter =    1 RMS gradient =   0.64E-06 energy =       -254.3381317055
  outer SCF loop converged in   1 iterations or    7 steps

  Decoupling Energy:                                               0.0371704776
  Recoupling Energy:                                              -0.0063753711

 ENERGY| Total FORCE_EVAL ( QMMM ) energy [a.u.]:          -1079.714053255000636

 MD| ***************************************************************************
 MD| Step number                                                               4
 MD| Time [fs]                                                          4.000000
 MD| Conserved quantity [hartree]                            -0.842113597194E+03
 MD| ---------------------------------------------------------------------------
 MD|                                          Instantaneous             Averages
 MD| CPU time per MD step [s]                    253.213562           349.085285
 MD| Energy drift per atom [K]           0.125938610513E+02   0.710282886345E+01
 MD| Potential energy [hartree]         -0.107971405326E+04  -0.107073927000E+04
 MD| Total kinetic energy [hartree]      0.237600456061E+03   0.227542982417E+03
 MD| QM kinetic energy [hartree]         0.148327959312E+00   0.124652179559E+00
 MD| Total temperature [K]                       297.869250           285.260638
 MD| QM temperature [K]                          459.198129           385.901942
 MD| ***************************************************************************

  Translating the system in order to center the QM fragment in the QM box.

 Number of electrons:                                                        180
 Number of occupied orbitals:                                                 90
 Number of molecular orbitals:                                                90

 Number of orbital functions:                                               1067
 Number of independent orbital functions:                                   1067

 Extrapolation method: ASPC


 SCF WAVEFUNCTION OPTIMIZATION

  ----------------------------------- OT ---------------------------------------
  Minimizer      : DIIS                : direct inversion
                                         in the iterative subspace
                                         using   7 DIIS vectors
                                         safer DIIS on
  Preconditioner : FULL_ALL            : diagonalization, state selective
  Precond_solver : DEFAULT
  stepsize       :    0.15000000                  energy_gap     :    0.08000000
  eps_taylor     :   0.10000E-15                  max_taylor     :             4
  ----------------------------------- OT ---------------------------------------

  Step     Update method      Time    Convergence         Total energy    Change
  ------------------------------------------------------------------------------
  Decoupling Energy:                                               0.0372100869
  Recoupling Energy:                                              -0.0063758440
     1 OT DIIS     0.15E+00   27.3     0.00032163      -253.7449295506 -2.54E+02
  Decoupling Energy:                                               0.0372072753
  Recoupling Energy:                                              -0.0063758029
     2 OT DIIS     0.15E+00   14.6     0.00013173      -253.7458483317 -9.19E-04
  Decoupling Energy:                                               0.0372092685
  Recoupling Energy:                                              -0.0063758204
     3 OT DIIS     0.15E+00   14.6     0.00006247      -253.7460071718 -1.59E-04
  Decoupling Energy:                                               0.0372088744
  Recoupling Energy:                                              -0.0063758162
     4 OT DIIS     0.15E+00   14.6     0.00002441      -253.7460383588 -3.12E-05
  Decoupling Energy:                                               0.0372096101
  Recoupling Energy:                                              -0.0063758218
     5 OT DIIS     0.15E+00   14.6     0.00000524      -253.7460409062 -2.55E-06
  Decoupling Energy:                                               0.0372092975
  Recoupling Energy:                                              -0.0063758193
     6 OT DIIS     0.15E+00   14.6     0.00000251      -253.7460410498 -1.44E-07
  Decoupling Energy:                                               0.0372093030
  Recoupling Energy:                                              -0.0063758191
     7 OT DIIS     0.15E+00   14.6     0.00000089      -253.7460410819 -3.21E-08

  *** SCF run converged in     7 steps ***


  Electronic density on regular grids:       -180.0000000000       -0.0000000000
  Core density on regular grids:              180.9999999999       -0.0000000001
  Total charge density on r-space grids:        0.9999999998
  Total charge density g-space grids:           0.9999999998

  Overlap energy of the core charge distribution:               0.00001841806238
  Self energy of the core charge distribution:               -615.71576003586028
  Core Hamiltonian energy:                                    191.22475468895402
  Hartree energy:                                             248.04794288015034
  Exchange-correlation energy:                                -61.41799255751560
  Hartree-Fock Exchange energy:                               -18.11952312900977
  QM/MM Electrostatic energy:                                   2.23451865331046

  Total energy:                                              -253.74604108190846

  outer SCF iter =    1 RMS gradient =   0.89E-06 energy =       -253.7460410819
  outer SCF loop converged in   1 iterations or    7 steps

  Decoupling Energy:                                               0.0372093274
  Recoupling Energy:                                              -0.0063758194

 ENERGY| Total FORCE_EVAL ( QMMM ) energy [a.u.]:          -1094.307010787266336

 MD| ***************************************************************************
 MD| Step number                                                               5
 MD| Time [fs]                                                          5.000000
 MD| Conserved quantity [hartree]                            -0.848389415987E+03
 MD| ---------------------------------------------------------------------------
 MD|                                          Instantaneous             Averages
 MD| CPU time per MD step [s]                    262.752153           331.818659
 MD| Energy drift per atom [K]           0.792353993336E+00   0.584073388942E+01
 MD| Potential energy [hartree]         -0.109430701079E+04  -0.107545281816E+04
 MD| Total kinetic energy [hartree]      0.245917594800E+03   0.231217904894E+03
 MD| QM kinetic energy [hartree]         0.157564606002E+00   0.131234664848E+00
 MD| Total temperature [K]                       308.296082           289.867726
 MD| QM temperature [K]                          487.793216           406.280197
 MD| ***************************************************************************

  Translating the system in order to center the QM fragment in the QM box.

 Number of electrons:                                                        180
 Number of occupied orbitals:                                                 90
 Number of molecular orbitals:                                                90

 Number of orbital functions:                                               1067
 Number of independent orbital functions:                                   1067

 Extrapolation method: ASPC


 SCF WAVEFUNCTION OPTIMIZATION

  ----------------------------------- OT ---------------------------------------
  Minimizer      : DIIS                : direct inversion
                                         in the iterative subspace
                                         using   7 DIIS vectors
                                         safer DIIS on
  Preconditioner : FULL_ALL            : diagonalization, state selective
  Precond_solver : DEFAULT
  stepsize       :    0.15000000                  energy_gap     :    0.08000000
  eps_taylor     :   0.10000E-15                  max_taylor     :             4
  ----------------------------------- OT ---------------------------------------

  Step     Update method      Time    Convergence         Total energy    Change
  ------------------------------------------------------------------------------
  Decoupling Energy:                                               0.0372439557
  Recoupling Energy:                                              -0.0063762166
     1 OT DIIS     0.15E+00   27.3     0.00048942      -253.1925199660 -2.53E+02
  Decoupling Energy:                                               0.0372417491
  Recoupling Energy:                                              -0.0063762245
     2 OT DIIS     0.15E+00   14.1     0.00019210      -253.1946665294 -2.15E-03
  Decoupling Energy:                                               0.0372398531
  Recoupling Energy:                                              -0.0063761969
     3 OT DIIS     0.15E+00   14.0     0.00008087      -253.1950232051 -3.57E-04
  Decoupling Energy:                                               0.0372397005
  Recoupling Energy:                                              -0.0063761969
     4 OT DIIS     0.15E+00   14.0     0.00002279      -253.1950821353 -5.89E-05
  Decoupling Energy:                                               0.0372388545
  Recoupling Energy:                                              -0.0063761877
     5 OT DIIS     0.15E+00   14.0     0.00000845      -253.1950847574 -2.62E-06
  Decoupling Energy:                                               0.0372394694
  Recoupling Energy:                                              -0.0063761927
     6 OT DIIS     0.15E+00   14.0     0.00000290      -253.1950851204 -3.63E-07
  Decoupling Energy:                                               0.0372392273
  Recoupling Energy:                                              -0.0063761904
     7 OT DIIS     0.15E+00   14.0     0.00000087      -253.1950851616 -4.13E-08

  *** SCF run converged in     7 steps ***


  Electronic density on regular grids:       -180.0000000000       -0.0000000000
  Core density on regular grids:              180.9999999999       -0.0000000001
  Total charge density on r-space grids:        0.9999999998
  Total charge density g-space grids:           0.9999999998

  Overlap energy of the core charge distribution:               0.00001843298326
  Self energy of the core charge distribution:               -615.71576003586028
  Core Hamiltonian energy:                                    191.21896096231637
  Hartree energy:                                             248.05852739968515
  Exchange-correlation energy:                                -61.40903160564065
  Hartree-Fock Exchange energy:                               -18.11645532363562
  QM/MM Electrostatic energy:                                   2.76865500853207

  Total energy:                                              -253.19508516161974

  outer SCF iter =    1 RMS gradient =   0.87E-06 energy =       -253.1950851616
  outer SCF loop converged in   1 iterations or    7 steps

  Decoupling Energy:                                               0.0372392242
  Recoupling Energy:                                              -0.0063761903

 ENERGY| Total FORCE_EVAL ( QMMM ) energy [a.u.]:          -1057.339966072599282

 MD| ***************************************************************************
 MD| Step number                                                               6
 MD| Time [fs]                                                          6.000000
 MD| Conserved quantity [hartree]                            -0.842900325333E+03
 MD| ---------------------------------------------------------------------------
 MD|                                          Instantaneous             Averages
 MD| CPU time per MD step [s]                    256.215632           319.218154
 MD| Energy drift per atom [K]           0.111144401196E+02   0.671968492778E+01
 MD| Potential energy [hartree]         -0.105733996607E+04  -0.107243400948E+04
 MD| Total kinetic energy [hartree]      0.214439640739E+03   0.228421527535E+03
 MD| QM kinetic energy [hartree]         0.141132394418E+00   0.132884286443E+00
 MD| Total temperature [K]                       268.833554           286.362031
 MD| QM temperature [K]                          436.921884           411.387145
 MD| ***************************************************************************

 -------------------------------------------------------------------------------
 -                                                                             -
 -                                DBCSR STATISTICS                             -
 -                                                                             -
 -------------------------------------------------------------------------------
 COUNTER                                    TOTAL       BLAS       SMM       ACC
 flops     9 x    26 x    26              2810808     100.0%      0.0%      0.0%
 flops    22 x    26 x    26              7287280     100.0%      0.0%      0.0%
 flops     9 x    32 x    32              8515584     100.0%      0.0%      0.0%
 flops    26 x    26 x    26             13709280     100.0%      0.0%      0.0%
 flops    22 x    32 x    32             22077440     100.0%      0.0%      0.0%
 flops    84 x    26 x    26             31799040     100.0%      0.0%      0.0%
 flops    26 x    32 x    26             33745920     100.0%      0.0%      0.0%
 flops    32 x    26 x    26             33745920     100.0%      0.0%      0.0%
 flops    26 x    26 x    32             33745920     100.0%      0.0%      0.0%
 flops   133 x    26 x    26             50348480     100.0%      0.0%      0.0%
 flops    84 x    26 x    32             78274560     100.0%      0.0%      0.0%
 flops    84 x    32 x    26             78274560     100.0%      0.0%      0.0%
 flops    26 x    26 x   257             80264184     100.0%      0.0%      0.0%
 flops    26 x    26 x   261             81513432     100.0%      0.0%      0.0%
 flops    32 x    32 x    26             83066880     100.0%      0.0%      0.0%
 flops    26 x    32 x    32             83066880     100.0%      0.0%      0.0%
 flops    32 x    26 x    32             83066880     100.0%      0.0%      0.0%
 flops    26 x    26 x   270             84324240     100.0%      0.0%      0.0%
 flops   155 x    26 x    26            117353600     100.0%      0.0%      0.0%
 flops   133 x    32 x    26            123934720     100.0%      0.0%      0.0%
 flops   133 x    26 x    32            123934720     100.0%      0.0%      0.0%
 flops   124 x    26 x    26            140824320     100.0%      0.0%      0.0%
 flops    84 x    26 x   257            141444576     100.0%      0.0%      0.0%
 flops    84 x    26 x   261            143646048     100.0%      0.0%      0.0%
 flops    84 x    26 x   270            148599360     100.0%      0.0%      0.0%
 flops     9 x     9 x    26            165405240     100.0%      0.0%      0.0%
 flops    84 x    32 x    32            192675840     100.0%      0.0%      0.0%
 flops    26 x    32 x   257            197573376     100.0%      0.0%      0.0%
 flops    32 x    26 x   257            197573376     100.0%      0.0%      0.0%
 flops    26 x    32 x   261            200648448     100.0%      0.0%      0.0%
 flops    32 x    26 x   261            200648448     100.0%      0.0%      0.0%
 flops    32 x    32 x    32            204472320     100.0%      0.0%      0.0%
 flops    26 x    32 x   270            207567360     100.0%      0.0%      0.0%
 flops    32 x    26 x   270            207567360     100.0%      0.0%      0.0%
 flops   133 x    26 x   257            223953912     100.0%      0.0%      0.0%
 flops   133 x    26 x   261            227439576     100.0%      0.0%      0.0%
 flops   133 x    26 x   270            235282320     100.0%      0.0%      0.0%
 flops   155 x    32 x    26            288870400     100.0%      0.0%      0.0%
 flops   155 x    26 x    32            288870400     100.0%      0.0%      0.0%
 flops   133 x    32 x    32            305070080     100.0%      0.0%      0.0%
 flops   124 x    32 x    26            346644480     100.0%      0.0%      0.0%
 flops   124 x    26 x    32            346644480     100.0%      0.0%      0.0%
 flops    84 x    32 x   257            348171264     100.0%      0.0%      0.0%
 flops    84 x    32 x   261            353590272     100.0%      0.0%      0.0%
 flops    84 x    32 x   270            365783040     100.0%      0.0%      0.0%
 flops     9 x     9 x    32            407151360     100.0%      0.0%      0.0%
 flops    22 x     9 x    26            415855440     100.0%      0.0%      0.0%
 flops     9 x    22 x    26            416576160     100.0%      0.0%      0.0%
 flops    32 x    32 x   257            486334464     100.0%      0.0%      0.0%
 flops    32 x    32 x   261            493903872     100.0%      0.0%      0.0%
 flops    32 x    32 x   270            510935040     100.0%      0.0%      0.0%
 flops   155 x    26 x   257            521997840     100.0%      0.0%      0.0%
 flops   155 x    26 x   261            530122320     100.0%      0.0%      0.0%
 flops   155 x    26 x   270            548402400     100.0%      0.0%      0.0%
 flops   133 x    32 x   257            551271168     100.0%      0.0%      0.0%
 flops   133 x    32 x   261            559851264     100.0%      0.0%      0.0%
 flops   133 x    32 x   270            579156480     100.0%      0.0%      0.0%
 flops   124 x    26 x   257            626397408     100.0%      0.0%      0.0%
 flops   124 x    26 x   261            636146784     100.0%      0.0%      0.0%
 flops   124 x    26 x   270            658082880     100.0%      0.0%      0.0%
 flops   155 x    32 x    32            711065600     100.0%      0.0%      0.0%
 flops     9 x    26 x     9            802701900     100.0%      0.0%      0.0%
 flops   124 x    32 x    32            853278720     100.0%      0.0%      0.0%
 flops    22 x     9 x    32           1023644160     100.0%      0.0%      0.0%
 flops     9 x    22 x    32           1025418240     100.0%      0.0%      0.0%
 flops    22 x    22 x    26           1109908800     100.0%      0.0%      0.0%
 flops   155 x    32 x   257           1284917760     100.0%      0.0%      0.0%
 flops   155 x    32 x   261           1304916480     100.0%      0.0%      0.0%
 flops   155 x    32 x   270           1349913600     100.0%      0.0%      0.0%
 flops   124 x    32 x   257           1541901312     100.0%      0.0%      0.0%
 flops   124 x    32 x   261           1565899776     100.0%      0.0%      0.0%
 flops   124 x    32 x   270           1619896320     100.0%      0.0%      0.0%
 flops     9 x    32 x     9           1975881600     100.0%      0.0%      0.0%
 flops     9 x    26 x    22           2081079000     100.0%      0.0%      0.0%
 flops    22 x    26 x     9           2081079000     100.0%      0.0%      0.0%
 flops    22 x    22 x    32           2732083200     100.0%      0.0%      0.0%
 flops    22 x    32 x     9           5122656000     100.0%      0.0%      0.0%
 flops     9 x    32 x    22           5122656000     100.0%      0.0%      0.0%
 flops    22 x    26 x    22           5395390000     100.0%      0.0%      0.0%
 flops    22 x    32 x    22          13280960000     100.0%      0.0%      0.0%
 flops inhomo. stacks                 13291115040     100.0%      0.0%      0.0%
 flops total                        80.152374E+09     100.0%      0.0%      0.0%
 flops max/rank                     14.139713E+09     100.0%      0.0%      0.0%
 matmuls inhomo. stacks                      8757     100.0%      0.0%      0.0%
 matmuls total                            2972790     100.0%      0.0%      0.0%
 number of processed stacks                145518     100.0%      0.0%      0.0%
 average stack size                                    20.4       0.0       0.0
 marketing flops                    85.671830E+09
 -------------------------------------------------------------------------------
 # multiplications                           1286
 max memory usage/rank               5.294227E+09
 # max total images/rank                        2
 # max 3D layers                                1
 # MPI messages exchanged                   51440
 MPI messages size (bytes):
  total size                        10.161478E+09
  min size                           0.000000E+00
  max size                           1.196352E+06
  average size                     197.540391E+03
 MPI breakdown and total messages size (bytes):
             size <=      128               11951                        0
       128 < size <=     8192                9561                 70525344
      8192 < size <=    32768                3510                 48859200
     32768 < size <=   131072               14910               1232564256
    131072 < size <=  4194304               11508               8809536120
   4194304 < size <= 16777216                   0                        0
  16777216 < size                               0                        0
 -------------------------------------------------------------------------------

 *** WARNING in dbcsr_mm.F:294 :: Using a non-square number of MPI ranks ***
 *** might lead to poor performance. Used ranks: 8 Suggested: 9 16       ***

 -------------------------------------------------------------------------------
 -                                                                             -
 -                      DBCSR MESSAGE PASSING PERFORMANCE                      -
 -                                                                             -
 -------------------------------------------------------------------------------
 ROUTINE             CALLS      AVE VOLUME [Bytes]
 MP_Bcast               81                     12.
 MP_Allreduce         6910                      8.
 MP_Alltoall          5344                  38949.
 MP_ISend            19180                  81729.
 MP_IRecv            19180                  77013.
 -------------------------------------------------------------------------------

 -------------------------------------------------------------------------------
 -                                                                             -
 -                                GRID STATISTICS                              -
 -                                                                             -
 -------------------------------------------------------------------------------
 LP    KERNEL             BACKEND                              COUNT     PERCENT
 2     collocate ortho    REF                                1126269      19.22%
 2     integrate ortho    REF                                1106014      18.88%
 1     collocate ortho    REF                                 943978      16.11%
 1     integrate ortho    REF                                 870340      14.85%
 3     integrate ortho    REF                                 570062       9.73%
 3     collocate ortho    REF                                 500530       8.54%
 0     collocate ortho    REF                                 281245       4.80%
 0     integrate ortho    REF                                 249988       4.27%
 4     integrate ortho    REF                                 121240       2.07%
 4     collocate ortho    REF                                  73823       1.26%
 5     integrate ortho    REF                                   8201       0.14%
 0     collocate general  REF                                   3808       0.06%
 1     integrate general  REF                                   3808       0.06%
 -------------------------------------------------------------------------------

 MEMORY| Estimated peak process memory [MiB]                                5098

 -------------------------------------------------------------------------------
 -                                                                             -
 -                         MESSAGE PASSING PERFORMANCE                         -
 -                                                                             -
 -------------------------------------------------------------------------------

 ROUTINE             CALLS      AVE VOLUME [Bytes]
 MP_Group                8
 MP_Bcast             6928               10586816.
 MP_Allreduce         2439                1685115.
 MP_Sync               430
 MP_Alltoall          1330              143193057.
 MP_ISendRecv         3773                1247677.
 MP_Wait              6300
 MP_comm_split          14
 MP_ISend             2023                5093744.
 MP_IRecv             2016                5108587.
 MP_Recv                21                 196328.
 -------------------------------------------------------------------------------


 -------------------------------------------------------------------------------
 -                                                                             -
 -                           R E F E R E N C E S                               -
 -                                                                             -
 -------------------------------------------------------------------------------
 
 CP2K version 8.2, the CP2K developers group (2021).
 CP2K is freely available from https://www.cp2k.org/ .

 Kuehne,Thomas D.; Iannuzzi,Marcella; Del Ben,Mauro;
 Rybkin,Vladimir V.; Seewald,Patrick; Stein,Frederick; Laino,Teodoro;
 Khaliullin,Rustam Z.; Schuett,Ole; Schiffmann,Florian; Golze,Dorothea;
 Wilhelm,Jan; Chulkov,Sergey; Bani-Hashemian,Mohammad Hossein;
 Weber,Valery; Borstnik,Urban; Taillefumier,Mathieu;
 Jakobovits,Alice Shoshana; Lazzaro,Alfio; Pabst,Hans; Mueller,Tiziano;
 Schade,Robert; Guidon,Manuel; Andermatt,Samuel; Holmberg,Nico;
 Schenter,Gregory K.; Hehn,Anna; Bussy,Augustin; Belleflamme,Fabian;
 Tabacchi,Gloria; Gloess,Andreas; Lass,Michael; Bethune,Iain;
 Mundy,Christopher J.; Plessl,Christian; Watkins,Matt;
 VandeVondele,Joost; Krack,Matthias; Hutter,Juerg. 
 The Journal of Chemical Physics, 152 (19), (2020). 
 CP2K: An electronic structure and molecular dynamics software package -
 Quickstep: Efficient and accurate electronic structure calculations.
 https://doi.org/10.1063/5.0007045

 Schuett, Ole; Messmer, Peter; Hutter, Juerg; VandeVondele, Joost. 
 Electronic Structure Calculations on Graphics Processing Units, John
 Wiley & Sons, Ltd, 173-190 (2016). 
 GPU-Accelerated Sparse Matrix-Matrix Multiplication for
 Linear Scaling Density Functional Theory.
 https://doi.org/10.1002/9781118670712.ch8

 Borstnik, U; VandeVondele, J; Weber, V; Hutter, J. 
 PARALLEL COMPUTING, 40 (5-6), 47-58 (2014). 
 Sparse matrix multiplication: The distributed block-compressed sparse
 row library.
 https://doi.org/10.1016/j.parco.2014.03.012

 Hutter, J; Iannuzzi, M; Schiffmann, F; VandeVondele, J. 
 WIREs Comput Mol Sci., 4 (1), 15-25 (2014). 
 CP2K: atomistic simulations of condensed matter systems.
 https://doi.org/10.1002/wcms.1159

 Marek, A; Blum, V; Johanni, R; Havu, V; Lang, B; Auckenthaler, T;
 Heinecke, A; Bungartz, H; Lederer, H. 
 Journal of Physics: Condensed Matter, 26 (21), (2014). 
 The ELPA library: scalable parallel eigenvalue solutions for
 electronic structure
 theory and computational science.
 https://doi.org/10.1088/0953-8984/26/21/213201

 Guidon, M; Hutter, J; VandeVondele, J. 
 JOURNAL OF CHEMICAL THEORY AND COMPUTATION, 5 (11), 3010-3021 (2009). 
 Robust Periodic Hartree-Fock Exchange for Large-Scale Simulations Using
 Gaussian Basis Sets.
 https://doi.org/10.1021/ct900494g

 Guidon, M; Schiffmann, F; Hutter, J; VandeVondele, J. 
 JOURNAL OF CHEMICAL PHYSICS, 128 (21), 214104 (2008). 
 Ab initio molecular dynamics using hybrid density functionals.
 https://doi.org/10.1063/1.2931945

 Kuhne, TD; Krack, M; Mohamed, FR; Parrinello, M. 
 PHYSICAL REVIEW LETTERS, 98 (6), 066401 (2007). 
 Efficient and accurate Car-Parrinello-like approach to
 Born-Oppenheimer molecular dynamics.
 https://doi.org/10.1103/PhysRevLett.98.066401

 Laino, T; Mohamed, F; Laio, A; Parrinello, M. 
 JOURNAL OF CHEMICAL THEORY AND COMPUTATION, 2 (5), 1370-1378 (2006). 
 An efficient linear-scaling electrostatic coupling for treating
 periodic boundary conditions in QM/MM simulations.
 https://doi.org/10.1021/ct6001169

 Laino, T; Mohamed, F; Laio, A; Parrinello, M. 
 JOURNAL OF CHEMICAL THEORY AND COMPUTATION, 1 (6), 1176-1184 (2005). 
 An efficient real space multigrid QM/MM electrostatic coupling.
 https://doi.org/10.1021/ct050123f

 Krack, M. 
 THEORETICAL CHEMISTRY ACCOUNTS, 114 (1-3), 145-152 (2005). 
 Pseudopotentials for H to Kr optimized for gradient-corrected
 exchange-correlation functionals.
 https://doi.org/10.1007/s00214-005-0655-y

 VandeVondele, J; Krack, M; Mohamed, F; Parrinello, M; Chassaing, T;
 Hutter, J. COMPUTER PHYSICS COMMUNICATIONS, 167 (2), 103-128 (2005). 
 QUICKSTEP: Fast and accurate density functional calculations using a
 mixed Gaussian and plane waves approach.
 https://doi.org/10.1016/j.cpc.2004.12.014

 Frigo, M; Johnson, SG. 
 PROCEEDINGS OF THE IEEE, 93 (2), 216-231 (2005). 
 The design and implementation of FFTW3.
 https://doi.org/10.1109/JPROC.2004.840301

 Kolafa, J. 
 JOURNAL OF COMPUTATIONAL CHEMISTRY, 25 (3), 335-342 (2004). 
 Time-reversible always stable predictor-corrector method for molecular dynamics of polarizable molecules.
 https://doi.org/10.1002/jcc.10385

 VandeVondele, J; Hutter, J. 
 JOURNAL OF CHEMICAL PHYSICS, 118 (10), 4365-4369 (2003). 
 An efficient orbital transformation method for electronic structure
 calculations.
 https://doi.org/10.1063/1.1543154

 Hartwigsen, C; Goedecker, S; Hutter, J. 
 PHYSICAL REVIEW B, 58 (7), 3641-3662 (1998). 
 Relativistic separable dual-space Gaussian pseudopotentials from H to Rn.
 https://doi.org/10.1103/PhysRevB.58.3641

 Lippert, G; Hutter, J; Parrinello, M. 
 MOLECULAR PHYSICS, 92 (3), 477-487 (1997). 
 A hybrid Gaussian and plane wave density functional scheme.
 https://doi.org/10.1080/002689797170220

 Perdew, JP; Burke, K; Ernzerhof, M. 
 PHYSICAL REVIEW LETTERS, 77 (18), 3865-3868 (1996). 
 Generalized gradient approximation made simple.
 https://doi.org/10.1103/PhysRevLett.77.3865

 Goedecker, S; Teter, M; Hutter, J. 
 PHYSICAL REVIEW B, 54 (3), 1703-1710 (1996). 
 Separable dual-space Gaussian pseudopotentials.
 https://doi.org/10.1103/PhysRevB.54.1703

 ESSMANN, U; PERERA, L; BERKOWITZ, ML; DARDEN, T; LEE, H; PEDERSEN, LG. 
 JOURNAL OF CHEMICAL PHYSICS, 103 (19), 8577-8593 (1995). 
 A SMOOTH PARTICLE MESH EWALD METHOD.
 https://doi.org/10.1063/1.470117

 BLOCHL, PE. 
 JOURNAL OF CHEMICAL PHYSICS, 103 (17), 7422-7428 (1995). 
 ELECTROSTATIC DECOUPLING OF PERIODIC IMAGES OF PLANE-WAVE-EXPANDED
 DENSITIES AND DERIVED ATOMIC POINT CHARGES.
 https://doi.org/10.1063/1.470314


 -------------------------------------------------------------------------------
 -                                                                             -
 -                                T I M I N G                                  -
 -                                                                             -
 -------------------------------------------------------------------------------
 SUBROUTINE                       CALLS  ASD         SELF TIME        TOTAL TIME
                                MAXIMUM       AVERAGE  MAXIMUM  AVERAGE  MAXIMUM
 CP2K                                 1  1.0    0.420    0.428 1961.442 1961.443
 qs_mol_dyn_low                       1  2.0    0.301    0.303 1916.476 1917.864
 velocity_verlet                      6  3.0    0.059    0.062 1609.655 1609.966
 qs_forces                            7  3.9    0.025    0.025 1450.018 1450.019
 rebuild_ks_matrix                   63  8.5    0.001    0.001 1378.394 1378.404
 qs_ks_build_kohn_sham_matrix        63  9.5    0.054    0.057 1378.393 1378.404
 hfx_ks_matrix                       63 10.5    0.003    0.003 1142.273 1142.284
 qs_energies                          7  4.9    0.046    0.046  911.528  911.598
 scf_env_do_scf                       7  5.9    0.000    0.001  899.750  899.751
 qs_ks_update_qs_env                 63  7.8    0.001    0.001  840.396  840.405
 scf_env_do_scf_inner_loop           56  6.8    0.056    0.058  704.887  704.897
 integrate_four_center               63 11.5    3.138    3.609  698.025  698.036
 integrate_four_center_main          63 12.5    3.406    4.781  669.702  681.314
 integrate_four_center_bin         4061 13.5  666.296  677.605  666.296  677.605
 qs_ks_update_qs_env_forces           7  4.9    0.000    0.000  538.013  538.015
 derivatives_four_center              7  8.9    0.037    0.261  444.232  444.233
 derivatives_four_center_main         7  9.9    1.263    1.888  443.501  443.502
 derivatives_four_center_bin        449 10.9  439.302  441.433  439.302  441.433
 qmmm_forces                          7  3.9    0.025    0.025  242.865  242.866
 qmmm_forces_with_gaussian            7  4.9    1.350    1.355  238.393  240.116
 pw_transfer                       1337 12.0    0.133    0.138  211.691  217.968
 fft_wrap_pw1pw2                   1113 13.1    0.018    0.019  207.692  213.980
 qmmm_force_with_gaussian_low         7  5.9    0.000    0.000  209.658  211.167
 fft_wrap_pw1pw2_200                707 14.4   19.145   20.434  204.863  211.153
 qmmm_el_coupling                     7  3.9    0.000    0.001  206.617  206.705
 qmmm_elec_with_gaussian              7  4.9    1.107    1.124  206.569  206.658
 init_scf_loop                        7  6.9    0.001    0.001  194.850  194.850
 qmmm_elec_with_gaussian_low          7  5.9    0.000    0.000  181.746  182.968
 qmmm_forces_gaussian_low_R           7  6.9    0.000    0.000  172.538  174.103
 qmmm_forces_with_gaussian_LG         7  7.9  172.538  174.103  172.538  174.103
 fft3d_ps                          1113 15.1  114.766  117.224  159.200  167.089
 qs_vxc_create                       63 10.5    0.003    0.003  166.095  166.100
 xc_vxc_pw_create                    63 11.5    2.019    2.817  166.092  166.097
 qmmm_elec_gaussian_low_R             7  6.9    0.001    0.010  130.876  132.524
 qmmm_elec_with_gaussian_LG           7  7.9  130.875  132.524  130.875  132.524
 xc_rho_set_and_dset_create          63 12.5    0.976    1.092   87.901   93.203
 qs_rho_update_rho                   63  7.9    0.005    0.005   63.727   63.730
 calculate_rho_elec                  63  8.9    0.921    0.924   63.722   63.725
 qmmm_elec_gaussian_low_G             7  6.9   50.870   51.646   50.870   51.646
 density_rs2pw                       63  9.9    0.004    0.004   46.994   48.587
 qmmm_env_create                      1  2.0    7.703    7.741   43.100   43.101
 -------------------------------------------------------------------------------

 The number of warnings for this run is : 1
 
 -------------------------------------------------------------------------------
  **** **** ******  **  PROGRAM ENDED AT                 2021-08-31 17:08:36.884
 ***** ** ***  *** **   PROGRAM RAN ON                                 nid001637
 **    ****   ******    PROGRAM RAN BY                                     hjbio
 ***** **    ** ** **   PROGRAM PROCESS ID                                188814
  **** **  *******  **  PROGRAM STOPPED IN /lus/cls01095/work/d118/d118/hjbio/qm
                                           mm-benchmarking/archer2/CPU/cp2kMD/CB
                                           D_PHY-PBE0/6STEPS/1NODES/32CPN/4THREA
                                           DS
