 DBCSR| CPU Multiplication driver                                           BLAS
 DBCSR| Multrec recursion limit                                              512
 DBCSR| Multiplication stack size                                           1000
 DBCSR| Maximum elements for images                                    UNLIMITED
 DBCSR| Multiplicative factor virtual images                                   1
 DBCSR| Use multiplication densification                                       T
 DBCSR| Multiplication size stacks                                             3
 DBCSR| Use memory pool for CPU allocation                                     F
 DBCSR| Number of 3D layers                                               SINGLE
 DBCSR| Use MPI memory allocation                                              F
 DBCSR| Use RMA algorithm                                                      F
 DBCSR| Use Communication thread                                               T
 DBCSR| Communication thread load                                             60
 DBCSR| MPI: My node id                                                        0
 DBCSR| MPI: Number of nodes                                                  32
 DBCSR| OMP: Current number of threads                                         8
 DBCSR| OMP: Max number of threads                                             8
 DBCSR| Split modifier for TAS multiplication algorithm                  1.0E+00


  **** **** ******  **  PROGRAM STARTED AT               2021-09-01 11:32:34.127
 ***** ** ***  *** **   PROGRAM STARTED ON                             nid001442
 **    ****   ******    PROGRAM STARTED BY                                 hjbio
 ***** **    ** ** **   PROGRAM PROCESS ID                                232775
  **** **  *******  **  PROGRAM STARTED IN /lus/cls01095/work/d118/d118/hjbio/qm
                                           mm-benchmarking/archer2/CPU/cp2kMD/CB
                                           D_PHY-PBE0/6STEPS/2NODES/128CPN/8THRE
                                           ADS

 CP2K| version string:                                          CP2K version 8.2
 CP2K| source code revision number:                                  git:310b7ab
 CP2K| cp2kflags: omp libint fftw3 libxc elpa parallel mpi3 scalapack plumed2   
 CP2K| is freely available from                            https://www.cp2k.org/
 CP2K| Program compiled at                          Thu 10 Jun 17:43:51 BST 2021
 CP2K| Program compiled on                                                 uan01
 CP2K| Program compiled for                                              ARCHER2
 CP2K| Data directory path              /work/d118/d118/hjbio/CP2K/cp2k-8.2/data
 CP2K| Input file name                                          CBD_PHY-cp2k.inp

 GLOBAL| Force Environment number                                              1
 GLOBAL| Basis set file name                                           HFX_BASIS
 GLOBAL| Potential file name                                           POTENTIAL
 GLOBAL| MM Potential file name                                     MM_POTENTIAL
 GLOBAL| Coordinate file name                                        CBD_PHY.pdb
 GLOBAL| Method name                                                        CP2K
 GLOBAL| Project name                                               CBD_PHY-PBE0
 GLOBAL| Run type                                                             MD
 GLOBAL| FFT library                                                       FFTW3
 GLOBAL| Diagonalization library                                            ELPA
 GLOBAL| Minimum number of eigenvectors for ELPA usage                        16
 GLOBAL| Orthonormality check for eigenvectors                          DISABLED
 GLOBAL| Matrix multiplication library                                    SCALAP
 GLOBAL| All-to-all communication in single precision                          F
 GLOBAL| FFTs using library dependent lengths                                  F
 GLOBAL| Grid backend                                                       AUTO
 GLOBAL| Global print level                                                  LOW
 GLOBAL| MPI I/O enabled                                                       T
 GLOBAL| Total number of message passing processes                            32
 GLOBAL| Number of threads for this process                                    8
 GLOBAL| This output is from process                                           0
 GLOBAL| CPU model name                          AMD EPYC 7742 64-Core Processor
 GLOBAL| CPUID                                                              1002

 MEMORY| system memory details [Kb]
 MEMORY|                        rank 0           min           max       average
 MEMORY| MemTotal            263568576     263568576     263568576     263568576
 MEMORY| MemFree             252395680     252395680     252535492     252465586
 MEMORY| Buffers                300260        299600        300260        299930
 MEMORY| Cached                2100276       1930176       2100276       2015226
 MEMORY| Slab                  1467284       1431868       1467284       1449576
 MEMORY| SReclaimable           204156        197572        204156        200864
 MEMORY| MemLikelyFree       255000372     254962840     255000372     254981606



                      ************* ******** ***********   
                     ************* **********************  
                     ****     **** ****      ***********   
                     ******** ****  *******     ****       
                     *******  ****   *******   ****        
                     ****     ****       ****  ****        
                     ****     **** **********  ****        
                      ****     **** ********    ****       
                     FRONTIERS IN SIMULATION TECHNOLOGY    
                                                           
                        C.J. Mundy, S. Balasubramanian,    
                     Ken Bagchi, J. Hutter, Ari Seitsonen  
                      IFW Kuo, T. Laino, J. VandeVondele   
                                 Version 1.0               

                                                           


 EWALD| Summation is done by:                                               SPME
 EWALD| Alpha parameter [       ANGSTROM^-1]                              0.4000
 EWALD| Real Space Cutoff [          ANGSTROM]                            8.4348
 EWALD| G-space max. Miller index                         80        80        80
 EWALD| Spline interpolation order                                             6

 FORCEFIELD| WARNING: A non Critical ForceField parameter is missing! CP2K GOES!
 FORCEFIELD| Non critical parameters are:Urey-Bradley,Torsions,Impropers, Opbends and 1-4
 FORCEFIELD| All missing parameters will not contribute to the potential energy!
 FORCEFIELD| Activate the print key FF_INFO to have a list of missing parameters

 CHARGE_INFO| Total Charge of the Classical System:                    -0.825808

 SPLINE_INFO| Generating 101926 splines for NONBONDED14 interactions 
              Due to 451 different atomic kinds
  ...10192  ...20384  ...30576  ...40768  ...50960  ...61152  ...71344  ...81536  ...91728  ...101920
 SPLINE_INFO| Number of unique splines computed:            301
 SPLINE_INFO| Done

 SPLINE_INFO| Generating 101926 splines for NONBONDED interactions 
              Due to 451 different atomic kinds
  ...10192  ...20384  ...30576  ...40768  ...50960  ...61152  ...71344  ...81536  ...91728  ...101920
 SPLINE_INFO| Number of unique splines computed:            301
 SPLINE_INFO| Done

 *******************************************************************************
 *******************************************************************************
 **                                                                           **
 **     #####                         ##              ##                      **
 **    ##   ##            ##          ##              ##                      **
 **   ##     ##                       ##            ######                    **
 **   ##     ##  ##   ##  ##   #####  ##  ##   ####   ##    #####    #####    **
 **   ##     ##  ##   ##  ##  ##      ## ##   ##      ##   ##   ##  ##   ##   **
 **   ##  ## ##  ##   ##  ##  ##      ####     ###    ##   ######   ######    **
 **    ##  ###   ##   ##  ##  ##      ## ##      ##   ##   ##       ##        **
 **     #######   #####   ##   #####  ##  ##  ####    ##    #####   ##        **
 **           ##                                                    ##        **
 **                                                                           **
 **                                                ... make the atoms dance   **
 **                                                                           **
 **            Copyright (C) by CP2K developers group (2000-2021)             **
 **                      J. Chem. Phys. 152, 194103 (2020)                    **
 **                                                                           **
 *******************************************************************************


 TOTAL NUMBERS AND MAXIMUM NUMBERS

  Total number of            - Atomic kinds:                                   5
                             - Atoms:                                         68
                             - Shell sets:                                   340
                             - Shells:                                       445
                             - Primitive Cartesian functions:                476
                             - Cartesian basis functions:                   1137
                             - Spherical basis functions:                   1067

  Maximum angular momentum of- Orbital basis functions:                        2
                             - Local part of the GTH pseudopotential:          2
                             - Non-local part of the GTH pseudopotential:      0


 SCF PARAMETERS         Density guess:                                   RESTART
                        --------------------------------------------------------
                        max_scf:                                              30
                        max_scf_history:                                       0
                        max_diis:                                              4
                        --------------------------------------------------------
                        eps_scf:                                        1.00E-06
                        eps_scf_history:                                0.00E+00
                        eps_diis:                                       1.00E-01
                        eps_eigval:                                     1.00E-05
                        --------------------------------------------------------
                        level_shift [a.u.]:                                 0.00
                        --------------------------------------------------------
                        Outer loop SCF in use 
                        No variables optimised in outer loop
                        eps_scf                                         1.00E-06
                        max_scf                                               20
                        No outer loop optimization
                        step_size                                       5.00E-01

 *******************************************************************************
 *******************************************************************************
 **                                                                           **
 **             #######  ##     ## ##     ## ##     ##                        **
 **            ##     ## ###   ### ###   ### ###   ###                        **
 **            ##     ## #### #### #### #### #### ####                        **
 **            ##     ## ## ### ## ## ### ## ## ### ##                        **
 **            ##  ## ## ##     ## ##     ## ##     ##                        **
 **            ##    ##  ##     ## ##     ## ##     ##  T.Laino and F.Mohamed **
 **             ##### ## ##     ## ##     ## ##     ##  2005 - 2015           **
 **                                                                           **
 **                                                     Calculation Started.. **
 *******************************************************************************
 *******************************************************************************

 MD_PAR| Molecular dynamics protocol (MD input parameters)
 MD_PAR| Ensemble type                                                       NVE
 MD_PAR| Number of time steps                                                  6
 MD_PAR| Time step [fs]                                                 1.000000
 MD_PAR| Temperature [K]                                              300.000000
 MD_PAR| Temperature tolerance [K]                                      0.000000
 MD_PAR| Print MD information every                                    1 step(s)
 MD_PAR| File type   Print frequency [steps]                          File names
 MD_PAR| Coordinates          1                           CBD_PHY-PBE0-pos-1.xyz
 MD_PAR| Velocities           1                           CBD_PHY-PBE0-vel-1.xyz
 MD_PAR| Energies             1                              CBD_PHY-PBE0-1.ener
 MD_PAR| Dump                20                           CBD_PHY-PBE0-1.restart

 ROT| Rotational analysis information
 ROT| Principal axes and moments of inertia [a.u.]
 ROT|                           1                   2                   3
 ROT| Eigenvalues      1.56283164001E+13   1.56407408488E+13   1.56663418804E+13
 ROT|      x              0.901637047331     -0.018153263569      0.432112362589
 ROT|      y              0.323714777231      0.690893927917     -0.646431994388
 ROT|      z             -0.286808957117      0.722728191915      0.628812040859
 ROT| Number of rotovibrational vectors                                        6

 DOF| Calculation of degrees of freedom
 DOF| Number of atoms                                                     167923
 DOF| Number of intramolecular constraints                                     0
 DOF| Number of intermolecular constraints                                     0
 DOF| Invariants (translations + rotations)                                    3
 DOF| Degrees of freedom                                                  503766

 DOF| Restraints information
 DOF| Number of intramolecular restraints                                      0
 DOF| Number of intermolecular restraints                                      0

 MD_VEL| Velocities initialization
 MD_VEL| Initial temperature [K]                                      300.000000
 MD_VEL| COM velocity            -0.0000000000     0.0000000000     0.0000000000

  Translating the system in order to center the QM fragment in the QM box.

 Number of electrons:                                                        180
 Number of occupied orbitals:                                                 90
 Number of molecular orbitals:                                                90

 Number of orbital functions:                                               1067
 Number of independent orbital functions:                                   1067

 Extrapolation method: initial_guess


 SCF WAVEFUNCTION OPTIMIZATION

  ----------------------------------- OT ---------------------------------------
  Minimizer      : DIIS                : direct inversion
                                         in the iterative subspace
                                         using   7 DIIS vectors
                                         safer DIIS on
  Preconditioner : FULL_ALL            : diagonalization, state selective
  Precond_solver : DEFAULT
  stepsize       :    0.15000000                  energy_gap     :    0.08000000
  eps_taylor     :   0.10000E-15                  max_taylor     :             4
  ----------------------------------- OT ---------------------------------------

  Step     Update method      Time    Convergence         Total energy    Change
  ------------------------------------------------------------------------------
  Decoupling Energy:                                               0.0370647021
  Recoupling Energy:                                              -0.0063741479
     1 OT DIIS     0.15E+00    8.3     0.00129057      -255.9257316521 -2.56E+02
  Decoupling Energy:                                               0.0370576004
  Recoupling Energy:                                              -0.0063740314
     2 OT DIIS     0.15E+00    1.2     0.00057761      -255.9419521977 -1.62E-02
  Decoupling Energy:                                               0.0369596417
  Recoupling Energy:                                              -0.0063730135
     3 OT DIIS     0.15E+00    1.1     0.00038348      -255.9451217318 -3.17E-03
  Decoupling Energy:                                               0.0369795470
  Recoupling Energy:                                              -0.0063732416
     4 OT DIIS     0.15E+00    1.1     0.00009866      -255.9458275768 -7.06E-04
  Decoupling Energy:                                               0.0369716948
  Recoupling Energy:                                              -0.0063731487
     5 OT DIIS     0.15E+00    1.1     0.00003992      -255.9458779686 -5.04E-05
  Decoupling Energy:                                               0.0369737640
  Recoupling Energy:                                              -0.0063731649
     6 OT DIIS     0.15E+00    1.1     0.00001793      -255.9458894170 -1.14E-05
  Decoupling Energy:                                               0.0369741808
  Recoupling Energy:                                              -0.0063731680
     7 OT DIIS     0.15E+00    1.1     0.00000621      -255.9458922938 -2.88E-06
  Decoupling Energy:                                               0.0369727127
  Recoupling Energy:                                              -0.0063731518
     8 OT DIIS     0.15E+00    1.1     0.00000242      -255.9458926328 -3.39E-07
  Decoupling Energy:                                               0.0369731061
  Recoupling Energy:                                              -0.0063731556
     9 OT DIIS     0.15E+00    1.1     0.00000111      -255.9458926822 -4.94E-08
  Decoupling Energy:                                               0.0369728228
  Recoupling Energy:                                              -0.0063731526
    10 OT DIIS     0.15E+00    1.1     0.00000048      -255.9458926924 -1.02E-08

  *** SCF run converged in    10 steps ***


  Electronic density on regular grids:       -179.9999999999        0.0000000001
  Core density on regular grids:              180.9999999999       -0.0000000001
  Total charge density on r-space grids:        1.0000000000
  Total charge density g-space grids:           1.0000000000

  Overlap energy of the core charge distribution:               0.00001951532734
  Self energy of the core charge distribution:               -615.71576003586028
  Core Hamiltonian energy:                                    191.01363220817746
  Hartree energy:                                             248.20663869015914
  Exchange-correlation energy:                                -61.38430761263385
  Hartree-Fock Exchange energy:                               -18.10821018492855
  QM/MM Electrostatic energy:                                   0.04209472735419

  Total energy:                                              -255.94589269240453

  outer SCF iter =    1 RMS gradient =   0.48E-06 energy =       -255.9458926924
  outer SCF loop converged in   1 iterations or   10 steps

  Decoupling Energy:                                               0.0369728028
  Recoupling Energy:                                              -0.0063731523

 ENERGY| Total FORCE_EVAL ( QMMM ) energy [a.u.]:          -1088.110859624540353

 MD_INI| MD initialization
 MD_INI| Potential energy [hartree]                          -0.108811085962E+04
 MD_INI| Total kinetic energy [hartree]                       0.239300084734E+03
 MD_INI| QM kinetic energy [hartree]                          0.106639360339E+00
 MD_INI| Total temperature [K]                                        300.000000
 MD_INI| QM temperature [K]                                           330.137318
 MD_INI| Cell volume [bohr^3]                                 1.137316355424E+07
 MD_INI| Cell volume [ang^3]                                  1.685328937712E+06
 MD_INI| Cell lengths [bohr]      2.24884969E+02  2.24884969E+02  2.24884969E+02
 MD_INI| Cell lengths [ang]       1.19004000E+02  1.19004000E+02  1.19004000E+02
 MD_INI| Cell angles [deg]        9.00000000E+01  9.00000000E+01  9.00000000E+01

  Translating the system in order to center the QM fragment in the QM box.

 Number of electrons:                                                        180
 Number of occupied orbitals:                                                 90
 Number of molecular orbitals:                                                90

 Number of orbital functions:                                               1067
 Number of independent orbital functions:                                   1067

 Extrapolation method: ASPC


 SCF WAVEFUNCTION OPTIMIZATION

  ----------------------------------- OT ---------------------------------------
  Minimizer      : DIIS                : direct inversion
                                         in the iterative subspace
                                         using   7 DIIS vectors
                                         safer DIIS on
  Preconditioner : FULL_ALL            : diagonalization, state selective
  Precond_solver : DEFAULT
  stepsize       :    0.15000000                  energy_gap     :    0.08000000
  eps_taylor     :   0.10000E-15                  max_taylor     :             4
  ----------------------------------- OT ---------------------------------------

  Step     Update method      Time    Convergence         Total energy    Change
  ------------------------------------------------------------------------------
  Decoupling Energy:                                               0.0370014667
  Recoupling Energy:                                              -0.0063734172
     1 OT DIIS     0.15E+00    4.7     0.00075899      -255.7182133784 -2.56E+02
  Decoupling Energy:                                               0.0370082386
  Recoupling Energy:                                              -0.0063735355
     2 OT DIIS     0.15E+00    1.2     0.00032685      -255.7237312575 -5.52E-03
  Decoupling Energy:                                               0.0370087411
  Recoupling Energy:                                              -0.0063735590
     3 OT DIIS     0.15E+00    1.1     0.00019068      -255.7247685884 -1.04E-03
  Decoupling Energy:                                               0.0370199882
  Recoupling Energy:                                              -0.0063736817
     4 OT DIIS     0.15E+00    1.1     0.00006054      -255.7249610254 -1.92E-04
  Decoupling Energy:                                               0.0370216763
  Recoupling Energy:                                              -0.0063737045
     5 OT DIIS     0.15E+00    1.2     0.00001954      -255.7249775902 -1.66E-05
  Decoupling Energy:                                               0.0370210005
  Recoupling Energy:                                              -0.0063736984
     6 OT DIIS     0.15E+00    1.1     0.00000817      -255.7249798485 -2.26E-06
  Decoupling Energy:                                               0.0370221929
  Recoupling Energy:                                              -0.0063737124
     7 OT DIIS     0.15E+00    1.1     0.00000308      -255.7249803106 -4.62E-07
  Decoupling Energy:                                               0.0370222382
  Recoupling Energy:                                              -0.0063737132
     8 OT DIIS     0.15E+00    1.1     0.00000136      -255.7249803878 -7.72E-08
  Decoupling Energy:                                               0.0370224658
  Recoupling Energy:                                              -0.0063737159
     9 OT DIIS     0.15E+00    1.1     0.00000058      -255.7249804035 -1.57E-08

  *** SCF run converged in     9 steps ***


  Electronic density on regular grids:       -180.0000000000        0.0000000000
  Core density on regular grids:              180.9999999999       -0.0000000001
  Total charge density on r-space grids:        0.9999999999
  Total charge density g-space grids:           0.9999999999

  Overlap energy of the core charge distribution:               0.00002422739645
  Self energy of the core charge distribution:               -615.71576003586028
  Core Hamiltonian energy:                                    191.21094987683682
  Hartree energy:                                             248.07774819477174
  Exchange-correlation energy:                                -61.42683492122300
  Hartree-Fock Exchange energy:                               -18.12283148462235
  QM/MM Electrostatic energy:                                   0.25172373915453

  Total energy:                                              -255.72498040354608

  outer SCF iter =    1 RMS gradient =   0.58E-06 energy =       -255.7249804035
  outer SCF loop converged in   1 iterations or    9 steps

  Decoupling Energy:                                               0.0370224944
  Recoupling Energy:                                              -0.0063737164

 ENERGY| Total FORCE_EVAL ( QMMM ) energy [a.u.]:          -1059.962356573203579

 MD| ***************************************************************************
 MD| Step number                                                               1
 MD| Time [fs]                                                          1.000000
 MD| Conserved quantity [hartree]                            -0.841461427175E+03
 MD| ---------------------------------------------------------------------------
 MD|                                          Instantaneous             Averages
 MD| CPU time per MD step [s]                     89.297388            89.297388
 MD| Energy drift per atom [K]           0.138202490861E+02   0.000000000000E+00
 MD| Potential energy [hartree]         -0.105996235657E+04  -0.105996235657E+04
 MD| Total kinetic energy [hartree]      0.218500929398E+03   0.218500929398E+03
 MD| QM kinetic energy [hartree]         0.121347273541E+00   0.121347273541E+00
 MD| Total temperature [K]                       273.925013           273.925013
 MD| QM temperature [K]                          375.670515           375.670515
 MD| ***************************************************************************

  Translating the system in order to center the QM fragment in the QM box.

 Number of electrons:                                                        180
 Number of occupied orbitals:                                                 90
 Number of molecular orbitals:                                                90

 Number of orbital functions:                                               1067
 Number of independent orbital functions:                                   1067

 Extrapolation method: ASPC


 SCF WAVEFUNCTION OPTIMIZATION

  ----------------------------------- OT ---------------------------------------
  Minimizer      : DIIS                : direct inversion
                                         in the iterative subspace
                                         using   7 DIIS vectors
                                         safer DIIS on
  Preconditioner : FULL_ALL            : diagonalization, state selective
  Precond_solver : DEFAULT
  stepsize       :    0.15000000                  energy_gap     :    0.08000000
  eps_taylor     :   0.10000E-15                  max_taylor     :             4
  ----------------------------------- OT ---------------------------------------

  Step     Update method      Time    Convergence         Total energy    Change
  ------------------------------------------------------------------------------
  Decoupling Energy:                                               0.0370781909
  Recoupling Energy:                                              -0.0063743357
     1 OT DIIS     0.15E+00    4.5     0.00029256      -255.3622522650 -2.55E+02
  Decoupling Energy:                                               0.0370714470
  Recoupling Energy:                                              -0.0063742686
     2 OT DIIS     0.15E+00    1.2     0.00012380      -255.3630880605 -8.36E-04
  Decoupling Energy:                                               0.0370747214
  Recoupling Energy:                                              -0.0063743003
     3 OT DIIS     0.15E+00    1.1     0.00005679      -255.3632553856 -1.67E-04
  Decoupling Energy:                                               0.0370720775
  Recoupling Energy:                                              -0.0063742776
     4 OT DIIS     0.15E+00    1.1     0.00001757      -255.3632741793 -1.88E-05
  Decoupling Energy:                                               0.0370725486
  Recoupling Energy:                                              -0.0063742816
     5 OT DIIS     0.15E+00    1.1     0.00000682      -255.3632757064 -1.53E-06
  Decoupling Energy:                                               0.0370729656
  Recoupling Energy:                                              -0.0063742866
     6 OT DIIS     0.15E+00    1.1     0.00000313      -255.3632759642 -2.58E-07
  Decoupling Energy:                                               0.0370729504
  Recoupling Energy:                                              -0.0063742866
     7 OT DIIS     0.15E+00    1.2     0.00000105      -255.3632760251 -6.10E-08
  Decoupling Energy:                                               0.0370730083
  Recoupling Energy:                                              -0.0063742873
     8 OT DIIS     0.15E+00    1.1     0.00000048      -255.3632760353 -1.02E-08

  *** SCF run converged in     8 steps ***


  Electronic density on regular grids:       -180.0000000000       -0.0000000000
  Core density on regular grids:              180.9999999999       -0.0000000001
  Total charge density on r-space grids:        0.9999999998
  Total charge density g-space grids:           0.9999999998

  Overlap energy of the core charge distribution:               0.00005088935749
  Self energy of the core charge distribution:               -615.71576003586028
  Core Hamiltonian energy:                                    191.44418582307401
  Hartree energy:                                             247.94136711930992
  Exchange-correlation energy:                                -61.47332446917457
  Hartree-Fock Exchange energy:                               -18.13880654659049
  QM/MM Electrostatic energy:                                   0.57901118458053

  Total energy:                                              -255.36327603530344

  outer SCF iter =    1 RMS gradient =   0.48E-06 energy =       -255.3632760353
  outer SCF loop converged in   1 iterations or    8 steps

  Decoupling Energy:                                               0.0370730250
  Recoupling Energy:                                              -0.0063742875

 ENERGY| Total FORCE_EVAL ( QMMM ) energy [a.u.]:          -1061.235329398962449

 MD| ***************************************************************************
 MD| Step number                                                               2
 MD| Time [fs]                                                          2.000000
 MD| Conserved quantity [hartree]                            -0.842817775004E+03
 MD| ---------------------------------------------------------------------------
 MD|                                          Instantaneous             Averages
 MD| CPU time per MD step [s]                     40.460919            64.879153
 MD| Energy drift per atom [K]           0.112696737727E+02   0.563483688635E+01
 MD| Potential energy [hartree]         -0.106123532940E+04  -0.106059884299E+04
 MD| Total kinetic energy [hartree]      0.218417554394E+03   0.218459241896E+03
 MD| QM kinetic energy [hartree]         0.111577870736E+00   0.116462572138E+00
 MD| Total temperature [K]                       273.820489           273.872751
 MD| QM temperature [K]                          345.426106           360.548311
 MD| ***************************************************************************

  Translating the system in order to center the QM fragment in the QM box.

 Number of electrons:                                                        180
 Number of occupied orbitals:                                                 90
 Number of molecular orbitals:                                                90

 Number of orbital functions:                                               1067
 Number of independent orbital functions:                                   1067

 Extrapolation method: ASPC


 SCF WAVEFUNCTION OPTIMIZATION

  ----------------------------------- OT ---------------------------------------
  Minimizer      : DIIS                : direct inversion
                                         in the iterative subspace
                                         using   7 DIIS vectors
                                         safer DIIS on
  Preconditioner : FULL_ALL            : diagonalization, state selective
  Precond_solver : DEFAULT
  stepsize       :    0.15000000                  energy_gap     :    0.08000000
  eps_taylor     :   0.10000E-15                  max_taylor     :             4
  ----------------------------------- OT ---------------------------------------

  Step     Update method      Time    Convergence         Total energy    Change
  ------------------------------------------------------------------------------
  Decoupling Energy:                                               0.0371231162
  Recoupling Energy:                                              -0.0063748337
     1 OT DIIS     0.15E+00    4.5     0.00057311      -254.8840261822 -2.55E+02
  Decoupling Energy:                                               0.0371264241
  Recoupling Energy:                                              -0.0063748792
     2 OT DIIS     0.15E+00    1.1     0.00022566      -254.8871520909 -3.13E-03
  Decoupling Energy:                                               0.0371270374
  Recoupling Energy:                                              -0.0063748841
     3 OT DIIS     0.15E+00    1.1     0.00008226      -254.8877075056 -5.55E-04
  Decoupling Energy:                                               0.0371223548
  Recoupling Energy:                                              -0.0063748376
     4 OT DIIS     0.15E+00    1.1     0.00002758      -254.8877576886 -5.02E-05
  Decoupling Energy:                                               0.0371233118
  Recoupling Energy:                                              -0.0063748478
     5 OT DIIS     0.15E+00    1.1     0.00001044      -254.8877614944 -3.81E-06
  Decoupling Energy:                                               0.0371231655
  Recoupling Energy:                                              -0.0063748451
     6 OT DIIS     0.15E+00    1.1     0.00000443      -254.8877620839 -5.89E-07
  Decoupling Energy:                                               0.0371230841
  Recoupling Energy:                                              -0.0063748446
     7 OT DIIS     0.15E+00    1.1     0.00000135      -254.8877621754 -9.15E-08
  Decoupling Energy:                                               0.0371230864
  Recoupling Energy:                                              -0.0063748447
     8 OT DIIS     0.15E+00    1.1     0.00000059      -254.8877621863 -1.09E-08

  *** SCF run converged in     8 steps ***


  Electronic density on regular grids:       -180.0000000003       -0.0000000003
  Core density on regular grids:              180.9999999999       -0.0000000001
  Total charge density on r-space grids:        0.9999999996
  Total charge density g-space grids:           0.9999999996

  Overlap energy of the core charge distribution:               0.00005124478264
  Self energy of the core charge distribution:               -615.71576003586028
  Core Hamiltonian energy:                                    191.49125526608711
  Hartree energy:                                             247.90728311307549
  Exchange-correlation energy:                                -61.48094618303059
  Hartree-Fock Exchange energy:                               -18.14140166332469
  QM/MM Electrostatic energy:                                   1.05175607195690

  Total energy:                                              -254.88776218631341

  outer SCF iter =    1 RMS gradient =   0.59E-06 energy =       -254.8877621863
  outer SCF loop converged in   1 iterations or    8 steps

  Decoupling Energy:                                               0.0371230864
  Recoupling Energy:                                              -0.0063748447

 ENERGY| Total FORCE_EVAL ( QMMM ) energy [a.u.]:          -1082.045340540000552

 MD| ***************************************************************************
 MD| Step number                                                               3
 MD| Time [fs]                                                          3.000000
 MD| Conserved quantity [hartree]                            -0.846392350653E+03
 MD| ---------------------------------------------------------------------------
 MD|                                          Instantaneous             Averages
 MD| CPU time per MD step [s]                     41.048774            56.935693
 MD| Energy drift per atom [K]           0.454778119810E+01   0.527248499026E+01
 MD| Potential energy [hartree]         -0.108204534054E+04  -0.106774767550E+04
 MD| Total kinetic energy [hartree]      0.235652989887E+03   0.224190491227E+03
 MD| QM kinetic energy [hartree]         0.117355681337E+00   0.116760275205E+00
 MD| Total temperature [K]                       295.427797           281.057767
 MD| QM temperature [K]                          363.313225           361.469949
 MD| ***************************************************************************

  Translating the system in order to center the QM fragment in the QM box.

 Number of electrons:                                                        180
 Number of occupied orbitals:                                                 90
 Number of molecular orbitals:                                                90

 Number of orbital functions:                                               1067
 Number of independent orbital functions:                                   1067

 Extrapolation method: ASPC


 SCF WAVEFUNCTION OPTIMIZATION

  ----------------------------------- OT ---------------------------------------
  Minimizer      : DIIS                : direct inversion
                                         in the iterative subspace
                                         using   7 DIIS vectors
                                         safer DIIS on
  Preconditioner : FULL_ALL            : diagonalization, state selective
  Precond_solver : DEFAULT
  stepsize       :    0.15000000                  energy_gap     :    0.08000000
  eps_taylor     :   0.10000E-15                  max_taylor     :             4
  ----------------------------------- OT ---------------------------------------

  Step     Update method      Time    Convergence         Total energy    Change
  ------------------------------------------------------------------------------
  Decoupling Energy:                                               0.0371655131
  Recoupling Energy:                                              -0.0063753288
     1 OT DIIS     0.15E+00    4.5     0.00026643      -254.3373027378 -2.54E+02
  Decoupling Energy:                                               0.0371742239
  Recoupling Energy:                                              -0.0063754096
     2 OT DIIS     0.15E+00    1.2     0.00010683      -254.3379923355 -6.90E-04
  Decoupling Energy:                                               0.0371691729
  Recoupling Energy:                                              -0.0063753575
     3 OT DIIS     0.15E+00    1.1     0.00003981      -254.3381203396 -1.28E-04
  Decoupling Energy:                                               0.0371714587
  Recoupling Energy:                                              -0.0063753811
     4 OT DIIS     0.15E+00    1.1     0.00001258      -254.3381301678 -9.83E-06
  Decoupling Energy:                                               0.0371702550
  Recoupling Energy:                                              -0.0063753692
     5 OT DIIS     0.15E+00    1.1     0.00000529      -254.3381310011 -8.33E-07
  Decoupling Energy:                                               0.0371705265
  Recoupling Energy:                                              -0.0063753714
     6 OT DIIS     0.15E+00    1.1     0.00000188      -254.3381311349 -1.34E-07
  Decoupling Energy:                                               0.0371705361
  Recoupling Energy:                                              -0.0063753717
     7 OT DIIS     0.15E+00    1.1     0.00000064      -254.3381311531 -1.83E-08

  *** SCF run converged in     7 steps ***


  Electronic density on regular grids:       -179.9999999999        0.0000000001
  Core density on regular grids:              180.9999999999       -0.0000000001
  Total charge density on r-space grids:        1.0000000000
  Total charge density g-space grids:           1.0000000000

  Overlap energy of the core charge distribution:               0.00002358484546
  Self energy of the core charge distribution:               -615.71576003586028
  Core Hamiltonian energy:                                    191.34733245233593
  Hartree energy:                                             247.97609296156136
  Exchange-correlation energy:                                -61.44937168386896
  Hartree-Fock Exchange energy:                               -18.13041951049605
  QM/MM Electrostatic energy:                                   1.63397107835772

  Total energy:                                              -254.33813115312478

  outer SCF iter =    1 RMS gradient =   0.64E-06 energy =       -254.3381311531
  outer SCF loop converged in   1 iterations or    7 steps

  Decoupling Energy:                                               0.0371704669
  Recoupling Energy:                                              -0.0063753710

 ENERGY| Total FORCE_EVAL ( QMMM ) energy [a.u.]:          -1079.714053180286783

 MD| ***************************************************************************
 MD| Step number                                                               4
 MD| Time [fs]                                                          4.000000
 MD| Conserved quantity [hartree]                            -0.842113597384E+03
 MD| ---------------------------------------------------------------------------
 MD|                                          Instantaneous             Averages
 MD| CPU time per MD step [s]                     39.210675            52.504439
 MD| Energy drift per atom [K]           0.125938606924E+02   0.710282891579E+01
 MD| Potential energy [hartree]         -0.107971405318E+04  -0.107073926992E+04
 MD| Total kinetic energy [hartree]      0.237600455796E+03   0.227542982369E+03
 MD| QM kinetic energy [hartree]         0.148327696396E+00   0.124652130502E+00
 MD| Total temperature [K]                       297.869250           285.260637
 MD| QM temperature [K]                          459.197315           385.901790
 MD| ***************************************************************************

  Translating the system in order to center the QM fragment in the QM box.

 Number of electrons:                                                        180
 Number of occupied orbitals:                                                 90
 Number of molecular orbitals:                                                90

 Number of orbital functions:                                               1067
 Number of independent orbital functions:                                   1067

 Extrapolation method: ASPC


 SCF WAVEFUNCTION OPTIMIZATION

  ----------------------------------- OT ---------------------------------------
  Minimizer      : DIIS                : direct inversion
                                         in the iterative subspace
                                         using   7 DIIS vectors
                                         safer DIIS on
  Preconditioner : FULL_ALL            : diagonalization, state selective
  Precond_solver : DEFAULT
  stepsize       :    0.15000000                  energy_gap     :    0.08000000
  eps_taylor     :   0.10000E-15                  max_taylor     :             4
  ----------------------------------- OT ---------------------------------------

  Step     Update method      Time    Convergence         Total energy    Change
  ------------------------------------------------------------------------------
  Decoupling Energy:                                               0.0372102066
  Recoupling Energy:                                              -0.0063758447
     1 OT DIIS     0.15E+00    4.5     0.00032170      -253.7449289630 -2.54E+02
  Decoupling Energy:                                               0.0372072059
  Recoupling Energy:                                              -0.0063758021
     2 OT DIIS     0.15E+00    1.1     0.00013172      -253.7458484919 -9.20E-04
  Decoupling Energy:                                               0.0372093678
  Recoupling Energy:                                              -0.0063758213
     3 OT DIIS     0.15E+00    1.1     0.00006234      -253.7460075127 -1.59E-04
  Decoupling Energy:                                               0.0372088153
  Recoupling Energy:                                              -0.0063758155
     4 OT DIIS     0.15E+00    1.1     0.00002429      -253.7460386266 -3.11E-05
  Decoupling Energy:                                               0.0372096198
  Recoupling Energy:                                              -0.0063758219
     5 OT DIIS     0.15E+00    1.2     0.00000523      -253.7460411488 -2.52E-06
  Decoupling Energy:                                               0.0372093037
  Recoupling Energy:                                              -0.0063758193
     6 OT DIIS     0.15E+00    1.2     0.00000251      -253.7460412922 -1.43E-07
  Decoupling Energy:                                               0.0372093056
  Recoupling Energy:                                              -0.0063758191
     7 OT DIIS     0.15E+00    1.2     0.00000089      -253.7460413242 -3.20E-08

  *** SCF run converged in     7 steps ***


  Electronic density on regular grids:       -180.0000000000       -0.0000000000
  Core density on regular grids:              180.9999999999       -0.0000000001
  Total charge density on r-space grids:        0.9999999998
  Total charge density g-space grids:           0.9999999998

  Overlap energy of the core charge distribution:               0.00001841800967
  Self energy of the core charge distribution:               -615.71576003586028
  Core Hamiltonian energy:                                    191.22475540173724
  Hartree energy:                                             248.04794270604680
  Exchange-correlation energy:                                -61.41799296757009
  Hartree-Fock Exchange energy:                               -18.11952376511740
  QM/MM Electrostatic energy:                                   2.23451891857131

  Total energy:                                              -253.74604132418281

  outer SCF iter =    1 RMS gradient =   0.89E-06 energy =       -253.7460413242
  outer SCF loop converged in   1 iterations or    7 steps

  Decoupling Energy:                                               0.0372093330
  Recoupling Energy:                                              -0.0063758194

 ENERGY| Total FORCE_EVAL ( QMMM ) energy [a.u.]:          -1094.307011343049226

 MD| ***************************************************************************
 MD| Step number                                                               5
 MD| Time [fs]                                                          5.000000
 MD| Conserved quantity [hartree]                            -0.848389416040E+03
 MD| ---------------------------------------------------------------------------
 MD|                                          Instantaneous             Averages
 MD| CPU time per MD step [s]                     40.184441            50.040439
 MD| Energy drift per atom [K]           0.792353891591E+00   0.584073391095E+01
 MD| Potential energy [hartree]         -0.109430701134E+04  -0.107545281821E+04
 MD| Total kinetic energy [hartree]      0.245917595303E+03   0.231217904956E+03
 MD| QM kinetic energy [hartree]         0.157565123843E+00   0.131234729171E+00
 MD| Total temperature [K]                       308.296082           289.867726
 MD| QM temperature [K]                          487.794819           406.280396
 MD| ***************************************************************************

  Translating the system in order to center the QM fragment in the QM box.

 Number of electrons:                                                        180
 Number of occupied orbitals:                                                 90
 Number of molecular orbitals:                                                90

 Number of orbital functions:                                               1067
 Number of independent orbital functions:                                   1067

 Extrapolation method: ASPC


 SCF WAVEFUNCTION OPTIMIZATION

  ----------------------------------- OT ---------------------------------------
  Minimizer      : DIIS                : direct inversion
                                         in the iterative subspace
                                         using   7 DIIS vectors
                                         safer DIIS on
  Preconditioner : FULL_ALL            : diagonalization, state selective
  Precond_solver : DEFAULT
  stepsize       :    0.15000000                  energy_gap     :    0.08000000
  eps_taylor     :   0.10000E-15                  max_taylor     :             4
  ----------------------------------- OT ---------------------------------------

  Step     Update method      Time    Convergence         Total energy    Change
  ------------------------------------------------------------------------------
  Decoupling Energy:                                               0.0372438772
  Recoupling Energy:                                              -0.0063762160
     1 OT DIIS     0.15E+00    4.5     0.00048966      -253.1925162796 -2.53E+02
  Decoupling Energy:                                               0.0372418789
  Recoupling Energy:                                              -0.0063762255
     2 OT DIIS     0.15E+00    1.1     0.00019221      -253.1946654503 -2.15E-03
  Decoupling Energy:                                               0.0372396896
  Recoupling Energy:                                              -0.0063761955
     3 OT DIIS     0.15E+00    1.1     0.00008083      -253.1950227771 -3.57E-04
  Decoupling Energy:                                               0.0372398064
  Recoupling Energy:                                              -0.0063761979
     4 OT DIIS     0.15E+00    1.1     0.00002274      -253.1950816973 -5.89E-05
  Decoupling Energy:                                               0.0372388065
  Recoupling Energy:                                              -0.0063761872
     5 OT DIIS     0.15E+00    1.1     0.00000852      -253.1950843000 -2.60E-06
  Decoupling Energy:                                               0.0372394673
  Recoupling Energy:                                              -0.0063761927
     6 OT DIIS     0.15E+00    1.1     0.00000294      -253.1950846653 -3.65E-07
  Decoupling Energy:                                               0.0372392260
  Recoupling Energy:                                              -0.0063761904
     7 OT DIIS     0.15E+00    1.1     0.00000087      -253.1950847074 -4.21E-08

  *** SCF run converged in     7 steps ***


  Electronic density on regular grids:       -180.0000000000       -0.0000000000
  Core density on regular grids:              180.9999999999       -0.0000000001
  Total charge density on r-space grids:        0.9999999998
  Total charge density g-space grids:           0.9999999998

  Overlap energy of the core charge distribution:               0.00001843288691
  Self energy of the core charge distribution:               -615.71576003586028
  Core Hamiltonian energy:                                    191.21897354448475
  Hartree energy:                                             248.05851521302606
  Exchange-correlation energy:                                -61.40903222854263
  Hartree-Fock Exchange energy:                               -18.11645524618432
  QM/MM Electrostatic energy:                                   2.76865561281092

  Total energy:                                              -253.19508470737858

  outer SCF iter =    1 RMS gradient =   0.87E-06 energy =       -253.1950847074
  outer SCF loop converged in   1 iterations or    7 steps

  Decoupling Energy:                                               0.0372392157
  Recoupling Energy:                                              -0.0063761902

 ENERGY| Total FORCE_EVAL ( QMMM ) energy [a.u.]:          -1057.339965767408557

 MD| ***************************************************************************
 MD| Step number                                                               6
 MD| Time [fs]                                                          6.000000
 MD| Conserved quantity [hartree]                            -0.842900323593E+03
 MD| ---------------------------------------------------------------------------
 MD|                                          Instantaneous             Averages
 MD| CPU time per MD step [s]                     39.131925            48.222354
 MD| Energy drift per atom [K]           0.111144433909E+02   0.671968549095E+01
 MD| Potential energy [hartree]         -0.105733996577E+04  -0.107243400947E+04
 MD| Total kinetic energy [hartree]      0.214439642175E+03   0.228421527826E+03
 MD| QM kinetic energy [hartree]         0.141133843655E+00   0.132884581585E+00
 MD| Total temperature [K]                       268.833556           286.362031
 MD| QM temperature [K]                          436.926370           411.388058
 MD| ***************************************************************************

 -------------------------------------------------------------------------------
 -                                                                             -
 -                                DBCSR STATISTICS                             -
 -                                                                             -
 -------------------------------------------------------------------------------
 COUNTER                                    TOTAL       BLAS       SMM       ACC
 flops    22 x    26 x    26              7287280     100.0%      0.0%      0.0%
 flops     9 x    26 x    26             13031928     100.0%      0.0%      0.0%
 flops    18 x    26 x    26             13628160     100.0%      0.0%      0.0%
 flops    26 x    26 x    26             13709280     100.0%      0.0%      0.0%
 flops    22 x    32 x    32             22077440     100.0%      0.0%      0.0%
 flops     9 x    32 x    26             25159680     100.0%      0.0%      0.0%
 flops     9 x    26 x    32             25159680     100.0%      0.0%      0.0%
 flops    18 x    32 x    26             33546240     100.0%      0.0%      0.0%
 flops    18 x    26 x    32             33546240     100.0%      0.0%      0.0%
 flops    26 x    26 x    32             33745920     100.0%      0.0%      0.0%
 flops    26 x    32 x    26             33745920     100.0%      0.0%      0.0%
 flops    32 x    26 x    26             33745920     100.0%      0.0%      0.0%
 flops    53 x    26 x    26             40127360     100.0%      0.0%      0.0%
 flops    62 x    26 x    26             46941440     100.0%      0.0%      0.0%
 flops     9 x    26 x   133             47056464     100.0%      0.0%      0.0%
 flops     9 x    26 x   146             51655968     100.0%      0.0%      0.0%
 flops    18 x    26 x   133             62741952     100.0%      0.0%      0.0%
 flops     9 x    26 x   124             65808288     100.0%      0.0%      0.0%
 flops    18 x    26 x   146             68874624     100.0%      0.0%      0.0%
 flops     9 x    32 x    32             70447104     100.0%      0.0%      0.0%
 flops    18 x    32 x    32             82575360     100.0%      0.0%      0.0%
 flops    32 x    32 x    26             83066880     100.0%      0.0%      0.0%
 flops    26 x    32 x    32             83066880     100.0%      0.0%      0.0%
 flops    32 x    26 x    32             83066880     100.0%      0.0%      0.0%
 flops    26 x    26 x   133             83074992     100.0%      0.0%      0.0%
 flops    18 x    26 x   124             87744384     100.0%      0.0%      0.0%
 flops    26 x    26 x   146             91195104     100.0%      0.0%      0.0%
 flops    53 x    26 x    32             98775040     100.0%      0.0%      0.0%
 flops    53 x    32 x    26             98775040     100.0%      0.0%      0.0%
 flops    62 x    26 x    32            115548160     100.0%      0.0%      0.0%
 flops    62 x    32 x    26            115548160     100.0%      0.0%      0.0%
 flops     9 x    32 x   133            115831296     100.0%      0.0%      0.0%
 flops    26 x    26 x   124            116180064     100.0%      0.0%      0.0%
 flops    31 x    26 x    26            117353600     100.0%      0.0%      0.0%
 flops     9 x    32 x   146            127153152     100.0%      0.0%      0.0%
 flops    18 x    32 x   133            154441728     100.0%      0.0%      0.0%
 flops     9 x    32 x   124            161989632     100.0%      0.0%      0.0%
 flops     9 x     9 x    26            165405240     100.0%      0.0%      0.0%
 flops    18 x    32 x   146            169537536     100.0%      0.0%      0.0%
 flops    53 x    26 x   133            184740192     100.0%      0.0%      0.0%
 flops    53 x    26 x   146            202797504     100.0%      0.0%      0.0%
 flops    32 x    32 x    32            204472320     100.0%      0.0%      0.0%
 flops    26 x    32 x   133            204492288     100.0%      0.0%      0.0%
 flops    32 x    26 x   133            204492288     100.0%      0.0%      0.0%
 flops    18 x    32 x   124            215986176     100.0%      0.0%      0.0%
 flops    62 x    26 x   133            216111168     100.0%      0.0%      0.0%
 flops    26 x    32 x   146            224480256     100.0%      0.0%      0.0%
 flops    32 x    26 x   146            224480256     100.0%      0.0%      0.0%
 flops    62 x    26 x   146            237234816     100.0%      0.0%      0.0%
 flops    53 x    32 x    32            243138560     100.0%      0.0%      0.0%
 flops    53 x    26 x   124            258358464     100.0%      0.0%      0.0%
 flops    62 x    32 x    32            284426240     100.0%      0.0%      0.0%
 flops    26 x    32 x   124            285981696     100.0%      0.0%      0.0%
 flops    32 x    26 x   124            285981696     100.0%      0.0%      0.0%
 flops    31 x    32 x    26            288870400     100.0%      0.0%      0.0%
 flops    31 x    26 x    32            288870400     100.0%      0.0%      0.0%
 flops    62 x    26 x   124            302230656     100.0%      0.0%      0.0%
 flops     9 x     9 x    32            407151360     100.0%      0.0%      0.0%
 flops    22 x     9 x    26            415855440     100.0%      0.0%      0.0%
 flops     9 x    22 x    26            416576160     100.0%      0.0%      0.0%
 flops    53 x    32 x   133            454745088     100.0%      0.0%      0.0%
 flops    53 x    32 x   146            499193856     100.0%      0.0%      0.0%
 flops    32 x    32 x   133            503365632     100.0%      0.0%      0.0%
 flops    62 x    32 x   133            531965952     100.0%      0.0%      0.0%
 flops    31 x    26 x   133            540277920     100.0%      0.0%      0.0%
 flops    32 x    32 x   146            552566784     100.0%      0.0%      0.0%
 flops    62 x    32 x   146            583962624     100.0%      0.0%      0.0%
 flops    31 x    26 x   146            593087040     100.0%      0.0%      0.0%
 flops    53 x    32 x   124            635959296     100.0%      0.0%      0.0%
 flops    32 x    32 x   124            703954944     100.0%      0.0%      0.0%
 flops    31 x    32 x    32            711065600     100.0%      0.0%      0.0%
 flops    62 x    32 x   124            743952384     100.0%      0.0%      0.0%
 flops    31 x    26 x   124            755576640     100.0%      0.0%      0.0%
 flops     9 x    26 x     9            802701900     100.0%      0.0%      0.0%
 flops    22 x     9 x    32           1023644160     100.0%      0.0%      0.0%
 flops     9 x    22 x    32           1025418240     100.0%      0.0%      0.0%
 flops    22 x    22 x    26           1109908800     100.0%      0.0%      0.0%
 flops    31 x    32 x   133           1329914880     100.0%      0.0%      0.0%
 flops    31 x    32 x   146           1459906560     100.0%      0.0%      0.0%
 flops    31 x    32 x   124           1859880960     100.0%      0.0%      0.0%
 flops     9 x    32 x     9           1975881600     100.0%      0.0%      0.0%
 flops     9 x    26 x    22           2081079000     100.0%      0.0%      0.0%
 flops    22 x    26 x     9           2081079000     100.0%      0.0%      0.0%
 flops    22 x    22 x    32           2732083200     100.0%      0.0%      0.0%
 flops    22 x    32 x     9           5122656000     100.0%      0.0%      0.0%
 flops     9 x    32 x    22           5122656000     100.0%      0.0%      0.0%
 flops    22 x    26 x    22           5395390000     100.0%      0.0%      0.0%
 flops    22 x    32 x    22          13280960000     100.0%      0.0%      0.0%
 flops inhomo. stacks                 25264809360     100.0%      0.0%      0.0%
 flops total                        87.966738E+09     100.0%      0.0%      0.0%
 flops max/rank                      7.883800E+09     100.0%      0.0%      0.0%
 matmuls inhomo. stacks                     64701     100.0%      0.0%      0.0%
 matmuls total                            3109626     100.0%      0.0%      0.0%
 number of processed stacks                767328     100.0%      0.0%      0.0%
 average stack size                                     4.1       0.0       0.0
 marketing flops                    85.671830E+09
 -------------------------------------------------------------------------------
 # multiplications                           1286
 max memory usage/rank               3.432849E+09
 # max total images/rank                        2
 # max 3D layers                                1
 # MPI messages exchanged                  534976
 MPI messages size (bytes):
  total size                        24.047462E+09
  min size                           0.000000E+00
  max size                         315.360000E+03
  average size                      44.950543E+03
 MPI breakdown and total messages size (bytes):
             size <=      128              312689                        0
       128 < size <=     8192               42723                307609632
      8192 < size <=    32768               47082               1385410320
     32768 < size <=   131072               65058               3164106960
    131072 < size <=  4194304               67424              19190370584
   4194304 < size <= 16777216                   0                        0
  16777216 < size                               0                        0
 -------------------------------------------------------------------------------

 *** WARNING in dbcsr_mm.F:294 :: Using a non-square number of MPI ranks ***
 *** might lead to poor performance. Used ranks: 32 Suggested: 36 64     ***

 -------------------------------------------------------------------------------
 -                                                                             -
 -                      DBCSR MESSAGE PASSING PERFORMANCE                      -
 -                                                                             -
 -------------------------------------------------------------------------------
 ROUTINE             CALLS      AVE VOLUME [Bytes]
 MP_Bcast               89                     12.
 MP_Allreduce         6926                      8.
 MP_Alltoall          5344                  14385.
 MP_ISend            39756                  23573.
 MP_IRecv            39294                  22604.
 -------------------------------------------------------------------------------

 -------------------------------------------------------------------------------
 -                                                                             -
 -                                GRID STATISTICS                              -
 -                                                                             -
 -------------------------------------------------------------------------------
 LP    KERNEL             BACKEND                              COUNT     PERCENT
 2     collocate ortho    REF                                1126269      19.15%
 2     integrate ortho    REF                                1106014      18.80%
 1     collocate ortho    REF                                 943978      16.05%
 1     integrate ortho    REF                                 870340      14.80%
 3     integrate ortho    REF                                 570062       9.69%
 3     collocate ortho    REF                                 500530       8.51%
 0     collocate ortho    REF                                 281245       4.78%
 0     integrate ortho    REF                                 249988       4.25%
 4     integrate ortho    REF                                 121240       2.06%
 4     collocate ortho    REF                                  73823       1.26%
 0     collocate general  REF                                  15232       0.26%
 1     integrate general  REF                                  15232       0.26%
 5     integrate ortho    REF                                   8201       0.14%
 -------------------------------------------------------------------------------

 MEMORY| Estimated peak process memory [MiB]                                3331

 -------------------------------------------------------------------------------
 -                                                                             -
 -                         MESSAGE PASSING PERFORMANCE                         -
 -                                                                             -
 -------------------------------------------------------------------------------

 ROUTINE             CALLS      AVE VOLUME [Bytes]
 MP_Group                8
 MP_Bcast             6942               10565475.
 MP_Allreduce         2477                1659272.
 MP_Sync               437
 MP_Alltoall          1344               35661819.
 MP_ISendRecv        12803                 111864.
 MP_Wait             20454
 MP_comm_split          21
 MP_ISend             6475                 861828.
 MP_IRecv             6468                 861818.
 MP_Recv                49                 102432.
 -------------------------------------------------------------------------------


 -------------------------------------------------------------------------------
 -                                                                             -
 -                           R E F E R E N C E S                               -
 -                                                                             -
 -------------------------------------------------------------------------------
 
 CP2K version 8.2, the CP2K developers group (2021).
 CP2K is freely available from https://www.cp2k.org/ .

 Kuehne,Thomas D.; Iannuzzi,Marcella; Del Ben,Mauro;
 Rybkin,Vladimir V.; Seewald,Patrick; Stein,Frederick; Laino,Teodoro;
 Khaliullin,Rustam Z.; Schuett,Ole; Schiffmann,Florian; Golze,Dorothea;
 Wilhelm,Jan; Chulkov,Sergey; Bani-Hashemian,Mohammad Hossein;
 Weber,Valery; Borstnik,Urban; Taillefumier,Mathieu;
 Jakobovits,Alice Shoshana; Lazzaro,Alfio; Pabst,Hans; Mueller,Tiziano;
 Schade,Robert; Guidon,Manuel; Andermatt,Samuel; Holmberg,Nico;
 Schenter,Gregory K.; Hehn,Anna; Bussy,Augustin; Belleflamme,Fabian;
 Tabacchi,Gloria; Gloess,Andreas; Lass,Michael; Bethune,Iain;
 Mundy,Christopher J.; Plessl,Christian; Watkins,Matt;
 VandeVondele,Joost; Krack,Matthias; Hutter,Juerg. 
 The Journal of Chemical Physics, 152 (19), (2020). 
 CP2K: An electronic structure and molecular dynamics software package -
 Quickstep: Efficient and accurate electronic structure calculations.
 https://doi.org/10.1063/5.0007045

 Schuett, Ole; Messmer, Peter; Hutter, Juerg; VandeVondele, Joost. 
 Electronic Structure Calculations on Graphics Processing Units, John
 Wiley & Sons, Ltd, 173-190 (2016). 
 GPU-Accelerated Sparse Matrix-Matrix Multiplication for
 Linear Scaling Density Functional Theory.
 https://doi.org/10.1002/9781118670712.ch8

 Borstnik, U; VandeVondele, J; Weber, V; Hutter, J. 
 PARALLEL COMPUTING, 40 (5-6), 47-58 (2014). 
 Sparse matrix multiplication: The distributed block-compressed sparse
 row library.
 https://doi.org/10.1016/j.parco.2014.03.012

 Hutter, J; Iannuzzi, M; Schiffmann, F; VandeVondele, J. 
 WIREs Comput Mol Sci., 4 (1), 15-25 (2014). 
 CP2K: atomistic simulations of condensed matter systems.
 https://doi.org/10.1002/wcms.1159

 Marek, A; Blum, V; Johanni, R; Havu, V; Lang, B; Auckenthaler, T;
 Heinecke, A; Bungartz, H; Lederer, H. 
 Journal of Physics: Condensed Matter, 26 (21), (2014). 
 The ELPA library: scalable parallel eigenvalue solutions for
 electronic structure
 theory and computational science.
 https://doi.org/10.1088/0953-8984/26/21/213201

 Guidon, M; Hutter, J; VandeVondele, J. 
 JOURNAL OF CHEMICAL THEORY AND COMPUTATION, 5 (11), 3010-3021 (2009). 
 Robust Periodic Hartree-Fock Exchange for Large-Scale Simulations Using
 Gaussian Basis Sets.
 https://doi.org/10.1021/ct900494g

 Guidon, M; Schiffmann, F; Hutter, J; VandeVondele, J. 
 JOURNAL OF CHEMICAL PHYSICS, 128 (21), 214104 (2008). 
 Ab initio molecular dynamics using hybrid density functionals.
 https://doi.org/10.1063/1.2931945

 Kuhne, TD; Krack, M; Mohamed, FR; Parrinello, M. 
 PHYSICAL REVIEW LETTERS, 98 (6), 066401 (2007). 
 Efficient and accurate Car-Parrinello-like approach to
 Born-Oppenheimer molecular dynamics.
 https://doi.org/10.1103/PhysRevLett.98.066401

 Laino, T; Mohamed, F; Laio, A; Parrinello, M. 
 JOURNAL OF CHEMICAL THEORY AND COMPUTATION, 2 (5), 1370-1378 (2006). 
 An efficient linear-scaling electrostatic coupling for treating
 periodic boundary conditions in QM/MM simulations.
 https://doi.org/10.1021/ct6001169

 Laino, T; Mohamed, F; Laio, A; Parrinello, M. 
 JOURNAL OF CHEMICAL THEORY AND COMPUTATION, 1 (6), 1176-1184 (2005). 
 An efficient real space multigrid QM/MM electrostatic coupling.
 https://doi.org/10.1021/ct050123f

 Krack, M. 
 THEORETICAL CHEMISTRY ACCOUNTS, 114 (1-3), 145-152 (2005). 
 Pseudopotentials for H to Kr optimized for gradient-corrected
 exchange-correlation functionals.
 https://doi.org/10.1007/s00214-005-0655-y

 VandeVondele, J; Krack, M; Mohamed, F; Parrinello, M; Chassaing, T;
 Hutter, J. COMPUTER PHYSICS COMMUNICATIONS, 167 (2), 103-128 (2005). 
 QUICKSTEP: Fast and accurate density functional calculations using a
 mixed Gaussian and plane waves approach.
 https://doi.org/10.1016/j.cpc.2004.12.014

 Frigo, M; Johnson, SG. 
 PROCEEDINGS OF THE IEEE, 93 (2), 216-231 (2005). 
 The design and implementation of FFTW3.
 https://doi.org/10.1109/JPROC.2004.840301

 Kolafa, J. 
 JOURNAL OF COMPUTATIONAL CHEMISTRY, 25 (3), 335-342 (2004). 
 Time-reversible always stable predictor-corrector method for molecular dynamics of polarizable molecules.
 https://doi.org/10.1002/jcc.10385

 VandeVondele, J; Hutter, J. 
 JOURNAL OF CHEMICAL PHYSICS, 118 (10), 4365-4369 (2003). 
 An efficient orbital transformation method for electronic structure
 calculations.
 https://doi.org/10.1063/1.1543154

 Hartwigsen, C; Goedecker, S; Hutter, J. 
 PHYSICAL REVIEW B, 58 (7), 3641-3662 (1998). 
 Relativistic separable dual-space Gaussian pseudopotentials from H to Rn.
 https://doi.org/10.1103/PhysRevB.58.3641

 Lippert, G; Hutter, J; Parrinello, M. 
 MOLECULAR PHYSICS, 92 (3), 477-487 (1997). 
 A hybrid Gaussian and plane wave density functional scheme.
 https://doi.org/10.1080/002689797170220

 Perdew, JP; Burke, K; Ernzerhof, M. 
 PHYSICAL REVIEW LETTERS, 77 (18), 3865-3868 (1996). 
 Generalized gradient approximation made simple.
 https://doi.org/10.1103/PhysRevLett.77.3865

 Goedecker, S; Teter, M; Hutter, J. 
 PHYSICAL REVIEW B, 54 (3), 1703-1710 (1996). 
 Separable dual-space Gaussian pseudopotentials.
 https://doi.org/10.1103/PhysRevB.54.1703

 ESSMANN, U; PERERA, L; BERKOWITZ, ML; DARDEN, T; LEE, H; PEDERSEN, LG. 
 JOURNAL OF CHEMICAL PHYSICS, 103 (19), 8577-8593 (1995). 
 A SMOOTH PARTICLE MESH EWALD METHOD.
 https://doi.org/10.1063/1.470117

 BLOCHL, PE. 
 JOURNAL OF CHEMICAL PHYSICS, 103 (17), 7422-7428 (1995). 
 ELECTROSTATIC DECOUPLING OF PERIODIC IMAGES OF PLANE-WAVE-EXPANDED
 DENSITIES AND DERIVED ATOMIC POINT CHARGES.
 https://doi.org/10.1063/1.470314


 -------------------------------------------------------------------------------
 -                                                                             -
 -                                T I M I N G                                  -
 -                                                                             -
 -------------------------------------------------------------------------------
 SUBROUTINE                       CALLS  ASD         SELF TIME        TOTAL TIME
                                MAXIMUM       AVERAGE  MAXIMUM  AVERAGE  MAXIMUM
 CP2K                                 1  1.0    0.165    0.179  331.785  331.785
 qs_mol_dyn_low                       1  2.0    0.007    0.007  290.213  291.837
 velocity_verlet                      6  3.0    0.016    0.017  241.605  241.700
 qs_forces                            7  3.9    0.001    0.001  169.528  169.528
 rebuild_ks_matrix                   63  8.5    0.000    0.000  150.384  150.398
 qs_ks_build_kohn_sham_matrix        63  9.5    0.010    0.011  150.384  150.398
 hfx_ks_matrix                       63 10.5    0.002    0.002  121.914  121.989
 qs_energies                          7  4.9    0.000    0.000   94.924   94.943
 scf_env_do_scf                       7  5.9    0.000    0.001   91.608   91.608
 qs_ks_update_qs_env                 63  7.8    0.001    0.001   75.911   75.923
 qs_ks_update_qs_env_forces           7  4.9    0.000    0.000   74.484   74.485
 derivatives_four_center              7  8.9    0.019    0.274   68.009   68.010
 derivatives_four_center_main         7  9.9    0.194    0.383   67.580   67.582
 derivatives_four_center_bin        580 10.9   66.525   67.324   66.525   67.324
 scf_env_do_scf_inner_loop           56  6.8    0.001    0.004   56.389   56.400
 qmmm_el_coupling                     7  3.9    0.000    0.000   55.884   56.092
 qmmm_elec_with_gaussian              7  4.9    0.742    0.770   55.879   56.086
 qmmm_forces                          7  3.9    0.018    0.019   55.437   55.438
 qmmm_forces_with_gaussian            7  4.9    0.736    0.747   54.393   54.914
 integrate_four_center               63 11.5    3.666    4.336   53.895   53.965
 integrate_four_center_main          63 12.5    0.122    0.165   46.314   46.997
 integrate_four_center_bin         4138 13.5   46.192   46.878   46.192   46.878
 qmmm_env_create                      1  2.0    7.447    7.515   39.736   39.737
 qmmm_elec_with_gaussian_low          7  5.9    0.000    0.000   35.960   36.499
 init_scf_loop                        7  6.9    0.000    0.000   35.204   35.204
 qmmm_force_with_gaussian_low         7  5.9    0.000    0.000   31.064   31.383
 fist_init                            1  3.0    0.000    0.000   29.304   29.304
 qmmm_forces_gaussian_low_R           7  6.9    0.000    0.000   25.640   25.977
 qmmm_forces_with_gaussian_LG         7  7.9   25.640   25.977   25.640   25.977
 qmmm_elec_gaussian_low_R             7  6.9    0.000    0.000   23.109   23.562
 qmmm_elec_with_gaussian_LG           7  7.9   23.109   23.561   23.109   23.561
 pw_transfer                       1337 12.0    0.088    0.099   20.999   22.142
 fft_wrap_pw1pw2                   1113 13.1    0.011    0.012   20.638   21.777
 pw_integral_ab                    2967  7.5   21.092   21.691   21.186   21.765
 fft_wrap_pw1pw2_200                707 14.4    2.178    2.232   20.010   21.129
 pw_restrict_s3                      21  5.9    2.390    2.475   18.374   18.625
 fft3d_ps                          1113 15.1    7.730    7.856   16.075   17.242
 qs_vxc_create                       63 10.5    0.001    0.001   16.878   16.880
 xc_vxc_pw_create                    63 11.5    0.433    0.472   16.877   16.879
 force_field_control                  1  4.0    0.000    0.000   15.285   15.636
 rdparm_amber_8                       2  6.5   12.700   12.942   14.844   15.001
 qs_rho_update_rho                   63  7.9    0.001    0.001   14.126   14.130
 calculate_rho_elec                  63  8.9    0.237    0.239   14.126   14.130
 qmmm_elec_with_gaussian:spline       7  5.9    0.000    0.000   13.842   14.061
 pw_prolongate_s3                    21  6.9    1.794    1.866   13.842   14.061
 topology_control                     1  4.0    0.000    0.000   13.803   13.884
 qmmm_elec_gaussian_low_G             7  6.9   12.851   13.436   12.851   13.436
 mp_sum_dm3                          38  5.7   10.837   11.911   10.837   11.911
 force_field_pack                     1  5.0    0.008    0.009    8.458    8.661
 density_rs2pw                       63  9.9    0.003    0.003    8.011    8.581
 xc_rho_set_and_dset_create          63 12.5    0.167    0.172    7.946    8.527
 connectivity_control                 2  4.0    0.000    0.001    8.244    8.246
 read_connectivity_amber              1  6.0    0.000    0.000    8.131    8.133
 rs_pw_transfer                     546 11.8    0.009    0.011    7.372    7.949
 mp_alltoall_z22v                  1113 17.1    5.852    6.944    5.852    6.944
 read_force_field_amber               1  5.0    0.012    0.012    6.725    6.882
 -------------------------------------------------------------------------------

 The number of warnings for this run is : 1
 
 -------------------------------------------------------------------------------
  **** **** ******  **  PROGRAM ENDED AT                 2021-09-01 11:38:06.299
 ***** ** ***  *** **   PROGRAM RAN ON                                 nid001442
 **    ****   ******    PROGRAM RAN BY                                     hjbio
 ***** **    ** ** **   PROGRAM PROCESS ID                                232775
  **** **  *******  **  PROGRAM STOPPED IN /lus/cls01095/work/d118/d118/hjbio/qm
                                           mm-benchmarking/archer2/CPU/cp2kMD/CB
                                           D_PHY-PBE0/6STEPS/2NODES/128CPN/8THRE
                                           ADS
