 DBCSR| CPU Multiplication driver                                           BLAS
 DBCSR| Multrec recursion limit                                              512
 DBCSR| Multiplication stack size                                           1000
 DBCSR| Maximum elements for images                                    UNLIMITED
 DBCSR| Multiplicative factor virtual images                                   1
 DBCSR| Use multiplication densification                                       T
 DBCSR| Multiplication size stacks                                             3
 DBCSR| Use memory pool for CPU allocation                                     F
 DBCSR| Number of 3D layers                                               SINGLE
 DBCSR| Use MPI memory allocation                                              F
 DBCSR| Use RMA algorithm                                                      F
 DBCSR| Use Communication thread                                               T
 DBCSR| Communication thread load                                             87
 DBCSR| MPI: My node id                                                        0
 DBCSR| MPI: Number of nodes                                                 256
 DBCSR| OMP: Current number of threads                                         1
 DBCSR| OMP: Max number of threads                                             1
 DBCSR| Split modifier for TAS multiplication algorithm                  1.0E+00


  **** **** ******  **  PROGRAM STARTED AT               2021-09-01 15:29:56.746
 ***** ** ***  *** **   PROGRAM STARTED ON                             nid001633
 **    ****   ******    PROGRAM STARTED BY                                 hjbio
 ***** **    ** ** **   PROGRAM PROCESS ID                                 80955
  **** **  *******  **  PROGRAM STARTED IN /lus/cls01095/work/d118/d118/hjbio/qm
                                           mm-benchmarking/archer2/CPU/cp2kMD/MQ
                                           AE/1STEPS/2NODES/128CPN/1THREADS

 CP2K| version string:                                          CP2K version 8.2
 CP2K| source code revision number:                                  git:310b7ab
 CP2K| cp2kflags: omp libint fftw3 libxc elpa parallel mpi3 scalapack plumed2   
 CP2K| is freely available from                            https://www.cp2k.org/
 CP2K| Program compiled at                          Thu 10 Jun 17:43:51 BST 2021
 CP2K| Program compiled on                                                 uan01
 CP2K| Program compiled for                                              ARCHER2
 CP2K| Data directory path              /work/d118/d118/hjbio/CP2K/cp2k-8.2/data
 CP2K| Input file name                                             mqae-cp2k.inp

 GLOBAL| Force Environment number                                              1
 GLOBAL| Basis set file name                                        BASIS_MOLOPT
 GLOBAL| Potential file name                                           POTENTIAL
 GLOBAL| MM Potential file name                                     MM_POTENTIAL
 GLOBAL| Coordinate file name                                           mqae.pdb
 GLOBAL| Method name                                                        CP2K
 GLOBAL| Project name                                                  MQAE-BLYP
 GLOBAL| Run type                                                             MD
 GLOBAL| FFT library                                                       FFTW3
 GLOBAL| Diagonalization library                                            ELPA
 GLOBAL| Minimum number of eigenvectors for ELPA usage                        16
 GLOBAL| Orthonormality check for eigenvectors                          DISABLED
 GLOBAL| Matrix multiplication library                                    SCALAP
 GLOBAL| All-to-all communication in single precision                          F
 GLOBAL| FFTs using library dependent lengths                                  F
 GLOBAL| Grid backend                                                       AUTO
 GLOBAL| Global print level                                                  LOW
 GLOBAL| MPI I/O enabled                                                       T
 GLOBAL| Total number of message passing processes                           256
 GLOBAL| Number of threads for this process                                    1
 GLOBAL| This output is from process                                           0
 GLOBAL| CPU model name                          AMD EPYC 7742 64-Core Processor
 GLOBAL| CPUID                                                              1002

 MEMORY| system memory details [Kb]
 MEMORY|                        rank 0           min           max       average
 MEMORY| MemTotal            263568576     263568576     263568576     263568576
 MEMORY| MemFree             235338512     235338512     235868700     235603218
 MEMORY| Buffers                354780        350928        354780        352854
 MEMORY| Cached                6759264       6331172       6759264       6545221
 MEMORY| Slab                  2127068       2067164       2127068       2097130
 MEMORY| SReclaimable           265784        258560        265784        262177
 MEMORY| MemLikelyFree       242718340     242718340     242809432     242763471



                      ************* ******** ***********   
                     ************* **********************  
                     ****     **** ****      ***********   
                     ******** ****  *******     ****       
                     *******  ****   *******   ****        
                     ****     ****       ****  ****        
                     ****     **** **********  ****        
                      ****     **** ********    ****       
                     FRONTIERS IN SIMULATION TECHNOLOGY    
                                                           
                        C.J. Mundy, S. Balasubramanian,    
                     Ken Bagchi, J. Hutter, Ari Seitsonen  
                      IFW Kuo, T. Laino, J. VandeVondele   
                                 Version 1.0               

                                                           


 EWALD| Summation is done by:                                               SPME
 EWALD| Alpha parameter [       ANGSTROM^-1]                              0.4000
 EWALD| Real Space Cutoff [          ANGSTROM]                            8.4348
 EWALD| G-space max. Miller index                         80        80        80
 EWALD| Spline interpolation order                                             6

 FORCEFIELD| WARNING: A non Critical ForceField parameter is missing! CP2K GOES!
 FORCEFIELD| Non critical parameters are:Urey-Bradley,Torsions,Impropers, Opbends and 1-4
 FORCEFIELD| All missing parameters will not contribute to the potential energy!
 FORCEFIELD| Activate the print key FF_INFO to have a list of missing parameters

 CHARGE_INFO| Total Charge of the Classical System:                     0.000000

 SPLINE_INFO| Generating 465 splines for NONBONDED14 interactions 
              Due to 30 different atomic kinds
  ...46  ...92  ...138  ...184  ...230  ...276  ...322  ...368  ...414  ...460
 SPLINE_INFO| Number of unique splines computed:            22
 SPLINE_INFO| Done

 SPLINE_INFO| Generating 465 splines for NONBONDED interactions 
              Due to 30 different atomic kinds
  ...46  ...92  ...138  ...184  ...230  ...276  ...322  ...368  ...414  ...460
 SPLINE_INFO| Number of unique splines computed:            22
 SPLINE_INFO| Done

 *******************************************************************************
 *******************************************************************************
 **                                                                           **
 **     #####                         ##              ##                      **
 **    ##   ##            ##          ##              ##                      **
 **   ##     ##                       ##            ######                    **
 **   ##     ##  ##   ##  ##   #####  ##  ##   ####   ##    #####    #####    **
 **   ##     ##  ##   ##  ##  ##      ## ##   ##      ##   ##   ##  ##   ##   **
 **   ##  ## ##  ##   ##  ##  ##      ####     ###    ##   ######   ######    **
 **    ##  ###   ##   ##  ##  ##      ## ##      ##   ##   ##       ##        **
 **     #######   #####   ##   #####  ##  ##  ####    ##    #####   ##        **
 **           ##                                                    ##        **
 **                                                                           **
 **                                                ... make the atoms dance   **
 **                                                                           **
 **            Copyright (C) by CP2K developers group (2000-2021)             **
 **                      J. Chem. Phys. 152, 194103 (2020)                    **
 **                                                                           **
 *******************************************************************************


 TOTAL NUMBERS AND MAXIMUM NUMBERS

  Total number of            - Atomic kinds:                                   4
                             - Atoms:                                         34
                             - Shell sets:                                    34
                             - Shells:                                       138
                             - Primitive Cartesian functions:                238
                             - Cartesian basis functions:                    332
                             - Spherical basis functions:                    314

  Maximum angular momentum of- Orbital basis functions:                        2
                             - Local part of the GTH pseudopotential:          2
                             - Non-local part of the GTH pseudopotential:      0


 SCF PARAMETERS         Density guess:                                   RESTART
                        --------------------------------------------------------
                        max_scf:                                             300
                        max_scf_history:                                       0
                        max_diis:                                              4
                        --------------------------------------------------------
                        eps_scf:                                        1.00E-06
                        eps_scf_history:                                0.00E+00
                        eps_diis:                                       1.00E-01
                        eps_eigval:                                     1.00E-05
                        --------------------------------------------------------
                        level_shift [a.u.]:                                 0.00
                        --------------------------------------------------------
                        No outer SCF

 *******************************************************************************
 *******************************************************************************
 **                                                                           **
 **             #######  ##     ## ##     ## ##     ##                        **
 **            ##     ## ###   ### ###   ### ###   ###                        **
 **            ##     ## #### #### #### #### #### ####                        **
 **            ##     ## ## ### ## ## ### ## ## ### ##                        **
 **            ##  ## ## ##     ## ##     ## ##     ##                        **
 **            ##    ##  ##     ## ##     ## ##     ##  T.Laino and F.Mohamed **
 **             ##### ## ##     ## ##     ## ##     ##  2005 - 2015           **
 **                                                                           **
 **                                                     Calculation Started.. **
 *******************************************************************************
 *******************************************************************************

 MD_PAR| Molecular dynamics protocol (MD input parameters)
 MD_PAR| Ensemble type                                                       NVE
 MD_PAR| Number of time steps                                                  1
 MD_PAR| Time step [fs]                                                 1.000000
 MD_PAR| Temperature [K]                                              300.000000
 MD_PAR| Temperature tolerance [K]                                      0.000000
 MD_PAR| Print MD information every                                    1 step(s)
 MD_PAR| File type   Print frequency [steps]                          File names
 MD_PAR| Coordinates          1                              MQAE-BLYP-pos-1.xyz
 MD_PAR| Velocities           1                              MQAE-BLYP-vel-1.xyz
 MD_PAR| Energies             1                                 MQAE-BLYP-1.ener
 MD_PAR| Dump                20                              MQAE-BLYP-1.restart

 ROT| Rotational analysis information
 ROT| Principal axes and moments of inertia [a.u.]
 ROT|                           1                   2                   3
 ROT| Eigenvalues      8.16955424013E+10   8.26770351780E+10   8.33145263212E+10
 ROT|      x              0.339476722416      0.927826629059     -0.154574581827
 ROT|      y              0.779693760491     -0.369496170761     -0.505519751982
 ROT|      z              0.526149403486     -0.051091351539      0.848855982490
 ROT| Number of rotovibrational vectors                                        6

 DOF| Calculation of degrees of freedom
 DOF| Number of atoms                                                       7186
 DOF| Number of intramolecular constraints                                     0
 DOF| Number of intermolecular constraints                                     0
 DOF| Invariants (translations + rotations)                                    3
 DOF| Degrees of freedom                                                   21555

 DOF| Restraints information
 DOF| Number of intramolecular restraints                                      0
 DOF| Number of intermolecular restraints                                      0

 MD_VEL| Velocities initialization
 MD_VEL| Initial temperature [K]                                      300.000000
 MD_VEL| COM velocity            -0.0000000000     0.0000000000    -0.0000000000

  Translating the system in order to center the QM fragment in the QM box.

 Number of electrons:                                                         94
 Number of occupied orbitals:                                                 47
 Number of molecular orbitals:                                                47

 Number of orbital functions:                                                314
 Number of independent orbital functions:                                    314

 Extrapolation method: initial_guess


 SCF WAVEFUNCTION OPTIMIZATION

  ----------------------------------- OT ---------------------------------------
  Minimizer      : DIIS                : direct inversion
                                         in the iterative subspace
                                         using   7 DIIS vectors
                                         safer DIIS on
  Preconditioner : FULL_ALL            : diagonalization, state selective
  Precond_solver : DEFAULT
  stepsize       :    0.15000000                  energy_gap     :    0.08000000
  eps_taylor     :   0.10000E-15                  max_taylor     :             4
  ----------------------------------- OT ---------------------------------------

  Step     Update method      Time    Convergence         Total energy    Change
  ------------------------------------------------------------------------------
  Decoupling Energy:                                               0.0725225470
  Recoupling Energy:                                              -0.0186086616
     1 OT DIIS     0.15E+00    0.3     0.00000556      -146.8268108731 -1.47E+02
  Decoupling Energy:                                               0.0725225167
  Recoupling Energy:                                              -0.0186086642
     2 OT DIIS     0.15E+00    0.2     0.00000254      -146.8268109193 -4.62E-08
  Decoupling Energy:                                               0.0725223233
  Recoupling Energy:                                              -0.0186086496
     3 OT DIIS     0.15E+00    0.2     0.00000280      -146.8268109254 -6.07E-09
  Decoupling Energy:                                               0.0725224230
  Recoupling Energy:                                              -0.0186086595
     4 OT DIIS     0.15E+00    0.2     0.00000038      -146.8268109292 -3.81E-09

  *** SCF run converged in     4 steps ***


  Electronic density on regular grids:        -93.9999999978        0.0000000022
  Core density on regular grids:               94.9999999999       -0.0000000001
  Total charge density on r-space grids:        1.0000000021
  Total charge density g-space grids:           1.0000000021

  Overlap energy of the core charge distribution:               0.00000599177744
  Self energy of the core charge distribution:               -359.57183942644110
  Core Hamiltonian energy:                                    109.64011022086304
  Hartree energy:                                             145.87568612605281
  Exchange-correlation energy:                                -42.44255599595996
  QM/MM Electrostatic energy:                                  -0.32821784546783

  Total energy:                                              -146.82681092917562
  Decoupling Energy:                                               0.0725224156
  Recoupling Energy:                                              -0.0186086578

 ENERGY| Total FORCE_EVAL ( QMMM ) energy [a.u.]:           -125.503710940010649

 MD_INI| MD initialization
 MD_INI| Potential energy [hartree]                          -0.125503710940E+03
 MD_INI| Total kinetic energy [hartree]                       0.102391057087E+02
 MD_INI| QM kinetic energy [hartree]                          0.538313910515E-01
 MD_INI| Total temperature [K]                                        300.000000
 MD_INI| QM temperature [K]                                           333.305658
 MD_INI| Cell volume [bohr^3]                                 4.911308927827E+05
 MD_INI| Cell volume [ang^3]                                  7.277808868775E+04
 MD_INI| Cell lengths [bohr]      7.88979558E+01  7.88979558E+01  7.88979558E+01
 MD_INI| Cell lengths [ang]       4.17510000E+01  4.17510000E+01  4.17510000E+01
 MD_INI| Cell angles [deg]        9.00000000E+01  9.00000000E+01  9.00000000E+01

  Translating the system in order to center the QM fragment in the QM box.

 Number of electrons:                                                         94
 Number of occupied orbitals:                                                 47
 Number of molecular orbitals:                                                47

 Number of orbital functions:                                                314
 Number of independent orbital functions:                                    314

 Extrapolation method: ASPC


 SCF WAVEFUNCTION OPTIMIZATION

  ----------------------------------- OT ---------------------------------------
  Minimizer      : DIIS                : direct inversion
                                         in the iterative subspace
                                         using   7 DIIS vectors
                                         safer DIIS on
  Preconditioner : FULL_ALL            : diagonalization, state selective
  Precond_solver : DEFAULT
  stepsize       :    0.15000000                  energy_gap     :    0.08000000
  eps_taylor     :   0.10000E-15                  max_taylor     :             4
  ----------------------------------- OT ---------------------------------------

  Step     Update method      Time    Convergence         Total energy    Change
  ------------------------------------------------------------------------------
  Decoupling Energy:                                               0.0725138029
  Recoupling Energy:                                              -0.0186075740
     1 OT DIIS     0.15E+00    0.2     0.00274277      -146.7109266889 -1.47E+02
  Decoupling Energy:                                               0.0723879408
  Recoupling Energy:                                              -0.0186017406
     2 OT DIIS     0.15E+00    0.2     0.00104140      -146.7208966760 -9.97E-03
  Decoupling Energy:                                               0.0724570966
  Recoupling Energy:                                              -0.0186050492
     3 OT DIIS     0.15E+00    0.2     0.00066070      -146.7221387199 -1.24E-03
  Decoupling Energy:                                               0.0723978978
  Recoupling Energy:                                              -0.0186016821
     4 OT DIIS     0.15E+00    0.2     0.00038715      -146.7224086888 -2.70E-04
  Decoupling Energy:                                               0.0724216591
  Recoupling Energy:                                              -0.0186034090
     5 OT DIIS     0.15E+00    0.2     0.00009431      -146.7224796281 -7.09E-05
  Decoupling Energy:                                               0.0724195069
  Recoupling Energy:                                              -0.0186030391
     6 OT DIIS     0.15E+00    0.2     0.00004935      -146.7224837980 -4.17E-06
  Decoupling Energy:                                               0.0724183951
  Recoupling Energy:                                              -0.0186031255
     7 OT DIIS     0.15E+00    0.2     0.00001392      -146.7224850394 -1.24E-06
  Decoupling Energy:                                               0.0724188352
  Recoupling Energy:                                              -0.0186031168
     8 OT DIIS     0.15E+00    0.2     0.00000613      -146.7224851410 -1.02E-07
  Decoupling Energy:                                               0.0724191548
  Recoupling Energy:                                              -0.0186031402
     9 OT DIIS     0.15E+00    0.2     0.00000189      -146.7224851679 -2.69E-08
  Decoupling Energy:                                               0.0724189012
  Recoupling Energy:                                              -0.0186031246
    10 OT DIIS     0.15E+00    0.2     0.00000116      -146.7224851699 -1.99E-09
  Decoupling Energy:                                               0.0724189779
  Recoupling Energy:                                              -0.0186031300
    11 OT DIIS     0.15E+00    0.2     0.00000032      -146.7224851710 -1.04E-09

  *** SCF run converged in    11 steps ***


  Electronic density on regular grids:        -94.0000000006       -0.0000000006
  Core density on regular grids:               94.9999999999       -0.0000000001
  Total charge density on r-space grids:        0.9999999993
  Total charge density g-space grids:           0.9999999993

  Overlap energy of the core charge distribution:               0.00003276526485
  Self energy of the core charge distribution:               -359.57183942644110
  Core Hamiltonian energy:                                    109.82313931884040
  Hartree energy:                                             145.78150468195253
  Exchange-correlation energy:                                -42.49961996739380
  QM/MM Electrostatic energy:                                  -0.25570254318605

  Total energy:                                              -146.72248517096321
  Decoupling Energy:                                               0.0724189898
  Recoupling Energy:                                              -0.0186031293

 ENERGY| Total FORCE_EVAL ( QMMM ) energy [a.u.]:           -154.940146524760365

 MD| ***************************************************************************
 MD| Step number                                                               1
 MD| Time [fs]                                                          1.000000
 MD| Conserved quantity [hartree]                                            NaN
 MD| ---------------------------------------------------------------------------
 MD|                                          Instantaneous             Averages
 MD| CPU time per MD step [s]                     21.838839            21.838839
 MD| Energy drift per atom [K]                          NaN   0.000000000000E+00
 MD| Potential energy [hartree]         -0.154940146525E+03  -0.154940146525E+03
 MD| Total kinetic energy [hartree]                     NaN                  NaN
 MD| QM kinetic energy [hartree]                        NaN                  NaN
 MD| Total temperature [K]                              NaN                  NaN
 MD| QM temperature [K]                                 NaN                  NaN
 MD| ***************************************************************************

 -------------------------------------------------------------------------------
 -                                                                             -
 -                                DBCSR STATISTICS                             -
 -                                                                             -
 -------------------------------------------------------------------------------
 COUNTER                                    TOTAL       BLAS       SMM       ACC
 flops     5 x    15 x    15                72000     100.0%      0.0%      0.0%
 flops    13 x    15 x    15               210600     100.0%      0.0%      0.0%
 flops     5 x    32 x    32               327680     100.0%      0.0%      0.0%
 flops    15 x    15 x    15               756000     100.0%      0.0%      0.0%
 flops    13 x    32 x    32               958464     100.0%      0.0%      0.0%
 flops    15 x    15 x    23              1283400     100.0%      0.0%      0.0%
 flops    15 x    15 x    26              1450800     100.0%      0.0%      0.0%
 flops    23 x    15 x    15              1552500     100.0%      0.0%      0.0%
 flops    15 x    15 x    32              1612800     100.0%      0.0%      0.0%
 flops    15 x    32 x    15              1612800     100.0%      0.0%      0.0%
 flops    32 x    15 x    15              1612800     100.0%      0.0%      0.0%
 flops    26 x    15 x    15              1755000     100.0%      0.0%      0.0%
 flops     5 x     5 x    15              1938000     100.0%      0.0%      0.0%
 flops    23 x    15 x    23              2158320     100.0%      0.0%      0.0%
 flops    23 x    15 x    26              2439840     100.0%      0.0%      0.0%
 flops    26 x    15 x    23              2439840     100.0%      0.0%      0.0%
 flops    15 x    32 x    23              2737920     100.0%      0.0%      0.0%
 flops    32 x    15 x    23              2737920     100.0%      0.0%      0.0%
 flops    26 x    15 x    26              2758080     100.0%      0.0%      0.0%
 flops    15 x    32 x    26              3095040     100.0%      0.0%      0.0%
 flops    32 x    15 x    26              3095040     100.0%      0.0%      0.0%
 flops    23 x    15 x    32              3312000     100.0%      0.0%      0.0%
 flops    23 x    32 x    15              3312000     100.0%      0.0%      0.0%
 flops    32 x    32 x    15              3440640     100.0%      0.0%      0.0%
 flops    15 x    32 x    32              3440640     100.0%      0.0%      0.0%
 flops    32 x    15 x    32              3440640     100.0%      0.0%      0.0%
 flops    26 x    15 x    32              3744000     100.0%      0.0%      0.0%
 flops    26 x    32 x    15              3744000     100.0%      0.0%      0.0%
 flops     5 x     5 x    32              4134400     100.0%      0.0%      0.0%
 flops    23 x    32 x    23              4604416     100.0%      0.0%      0.0%
 flops    23 x    32 x    26              5204992     100.0%      0.0%      0.0%
 flops    26 x    32 x    23              5204992     100.0%      0.0%      0.0%
 flops    13 x     5 x    15              5335200     100.0%      0.0%      0.0%
 flops     5 x    13 x    15              5335200     100.0%      0.0%      0.0%
 flops    32 x    32 x    23              5840896     100.0%      0.0%      0.0%
 flops    26 x    32 x    26              5883904     100.0%      0.0%      0.0%
 flops    15 x    15 x    18              6026400     100.0%      0.0%      0.0%
 flops    32 x    32 x    26              6602752     100.0%      0.0%      0.0%
 flops    23 x    32 x    32              7065600     100.0%      0.0%      0.0%
 flops    18 x    15 x    15              7290000     100.0%      0.0%      0.0%
 flops    32 x    32 x    32              7340032     100.0%      0.0%      0.0%
 flops    26 x    32 x    32              7987200     100.0%      0.0%      0.0%
 flops     5 x    15 x     5              8448000     100.0%      0.0%      0.0%
 flops    23 x    15 x    18             10134720     100.0%      0.0%      0.0%
 flops    18 x    15 x    23             10134720     100.0%      0.0%      0.0%
 flops    13 x     5 x    32             11381760     100.0%      0.0%      0.0%
 flops     5 x    13 x    32             11381760     100.0%      0.0%      0.0%
 flops    26 x    15 x    18             11456640     100.0%      0.0%      0.0%
 flops    18 x    15 x    26             11456640     100.0%      0.0%      0.0%
 flops    15 x    32 x    18             12856320     100.0%      0.0%      0.0%
 flops    32 x    15 x    18             12856320     100.0%      0.0%      0.0%
 flops    18 x    32 x    15             15552000     100.0%      0.0%      0.0%
 flops    18 x    15 x    32             15552000     100.0%      0.0%      0.0%
 flops    13 x    13 x    15             16472430     100.0%      0.0%      0.0%
 flops     5 x    32 x     5             18022400     100.0%      0.0%      0.0%
 flops    18 x    32 x    23             21620736     100.0%      0.0%      0.0%
 flops    23 x    32 x    18             21620736     100.0%      0.0%      0.0%
 flops    18 x    32 x    26             24440832     100.0%      0.0%      0.0%
 flops    26 x    32 x    18             24440832     100.0%      0.0%      0.0%
 flops    13 x    15 x     5             24710400     100.0%      0.0%      0.0%
 flops     5 x    15 x    13             24710400     100.0%      0.0%      0.0%
 flops    32 x    32 x    18             27426816     100.0%      0.0%      0.0%
 flops    18 x    32 x    32             33177600     100.0%      0.0%      0.0%
 flops    13 x    13 x    32             35141184     100.0%      0.0%      0.0%
 flops    18 x    15 x    18             47589120     100.0%      0.0%      0.0%
 flops    13 x    32 x     5             52715520     100.0%      0.0%      0.0%
 flops     5 x    32 x    13             52715520     100.0%      0.0%      0.0%
 flops    13 x    15 x    13             72277920     100.0%      0.0%      0.0%
 flops    18 x    32 x    18            101523456     100.0%      0.0%      0.0%
 flops    13 x    32 x    13            154192896     100.0%      0.0%      0.0%
 flops inhomo. stacks                           0       0.0%      0.0%      0.0%
 flops total                         1.028904E+09     100.0%      0.0%      0.0%
 flops max/rank                     83.463022E+06     100.0%      0.0%      0.0%
 matmuls inhomo. stacks                         0       0.0%      0.0%      0.0%
 matmuls total                             151546     100.0%      0.0%      0.0%
 number of processed stacks                126760     100.0%      0.0%      0.0%
 average stack size                                     1.2       0.0       0.0
 marketing flops                     1.117856E+09
 -------------------------------------------------------------------------------
 # multiplications                            350
 max memory usage/rank             415.191040E+06
 # max total images/rank                        1
 # max 3D layers                                1
 # MPI messages exchanged                 2688000
 MPI messages size (bytes):
  total size                         1.563812E+09
  min size                           0.000000E+00
  max size                           8.192000E+03
  average size                     581.775146E+00
 MPI breakdown and total messages size (bytes):
             size <=      128             2218320                        0
       128 < size <=     8192              469680               1563811560
      8192 < size <=    32768                   0                        0
     32768 < size <=   131072                   0                        0
    131072 < size <=  4194304                   0                        0
   4194304 < size <= 16777216                   0                        0
  16777216 < size                               0                        0
 -------------------------------------------------------------------------------
 -                                                                             -
 -                      DBCSR MESSAGE PASSING PERFORMANCE                      -
 -                                                                             -
 -------------------------------------------------------------------------------
 ROUTINE             CALLS      AVE VOLUME [Bytes]
 MP_Bcast               71                     12.
 MP_Allreduce         1979                      9.
 MP_Alltoall          1407                  84607.
 MP_ISend            22392                   1079.
 MP_IRecv            22392                    959.
 -------------------------------------------------------------------------------

 -------------------------------------------------------------------------------
 -                                                                             -
 -                                GRID STATISTICS                              -
 -                                                                             -
 -------------------------------------------------------------------------------
 LP    KERNEL             BACKEND                              COUNT     PERCENT
 3     collocate ortho    REF                                 479731      23.72%
 3     integrate ortho    REF                                 453190      22.41%
 4     integrate ortho    REF                                 285852      14.13%
 4     collocate ortho    REF                                 260008      12.86%
 2     collocate ortho    REF                                 254143      12.57%
 2     integrate ortho    REF                                 224250      11.09%
 5     integrate ortho    REF                                  30590       1.51%
 0     collocate general  REF                                  17408       0.86%
 1     integrate general  REF                                  17408       0.86%
 -------------------------------------------------------------------------------

 MEMORY| Estimated peak process memory [MiB]                                 397

 -------------------------------------------------------------------------------
 -                                                                             -
 -                         MESSAGE PASSING PERFORMANCE                         -
 -                                                                             -
 -------------------------------------------------------------------------------

 ROUTINE             CALLS      AVE VOLUME [Bytes]
 MP_Group                8
 MP_Bcast              476                6634263.
 MP_Allreduce          859                 245809.
 MP_Sync                19
 MP_Alltoall           361                 933563.
 MP_ISendRecv        26010                  27216.
 MP_Wait             27884
 MP_comm_split           6
 MP_ISend             1534                 131150.
 MP_IRecv             1612                 124535.
 MP_Recv                30                   7536.
 -------------------------------------------------------------------------------


 -------------------------------------------------------------------------------
 -                                                                             -
 -                           R E F E R E N C E S                               -
 -                                                                             -
 -------------------------------------------------------------------------------
 
 CP2K version 8.2, the CP2K developers group (2021).
 CP2K is freely available from https://www.cp2k.org/ .

 Kuehne,Thomas D.; Iannuzzi,Marcella; Del Ben,Mauro;
 Rybkin,Vladimir V.; Seewald,Patrick; Stein,Frederick; Laino,Teodoro;
 Khaliullin,Rustam Z.; Schuett,Ole; Schiffmann,Florian; Golze,Dorothea;
 Wilhelm,Jan; Chulkov,Sergey; Bani-Hashemian,Mohammad Hossein;
 Weber,Valery; Borstnik,Urban; Taillefumier,Mathieu;
 Jakobovits,Alice Shoshana; Lazzaro,Alfio; Pabst,Hans; Mueller,Tiziano;
 Schade,Robert; Guidon,Manuel; Andermatt,Samuel; Holmberg,Nico;
 Schenter,Gregory K.; Hehn,Anna; Bussy,Augustin; Belleflamme,Fabian;
 Tabacchi,Gloria; Gloess,Andreas; Lass,Michael; Bethune,Iain;
 Mundy,Christopher J.; Plessl,Christian; Watkins,Matt;
 VandeVondele,Joost; Krack,Matthias; Hutter,Juerg. 
 The Journal of Chemical Physics, 152 (19), (2020). 
 CP2K: An electronic structure and molecular dynamics software package -
 Quickstep: Efficient and accurate electronic structure calculations.
 https://doi.org/10.1063/5.0007045

 Schuett, Ole; Messmer, Peter; Hutter, Juerg; VandeVondele, Joost. 
 Electronic Structure Calculations on Graphics Processing Units, John
 Wiley & Sons, Ltd, 173-190 (2016). 
 GPU-Accelerated Sparse Matrix-Matrix Multiplication for
 Linear Scaling Density Functional Theory.
 https://doi.org/10.1002/9781118670712.ch8

 Borstnik, U; VandeVondele, J; Weber, V; Hutter, J. 
 PARALLEL COMPUTING, 40 (5-6), 47-58 (2014). 
 Sparse matrix multiplication: The distributed block-compressed sparse
 row library.
 https://doi.org/10.1016/j.parco.2014.03.012

 Hutter, J; Iannuzzi, M; Schiffmann, F; VandeVondele, J. 
 WIREs Comput Mol Sci., 4 (1), 15-25 (2014). 
 CP2K: atomistic simulations of condensed matter systems.
 https://doi.org/10.1002/wcms.1159

 Marek, A; Blum, V; Johanni, R; Havu, V; Lang, B; Auckenthaler, T;
 Heinecke, A; Bungartz, H; Lederer, H. 
 Journal of Physics: Condensed Matter, 26 (21), (2014). 
 The ELPA library: scalable parallel eigenvalue solutions for
 electronic structure
 theory and computational science.
 https://doi.org/10.1088/0953-8984/26/21/213201

 VandeVondele, J; Hutter, J. 
 JOURNAL OF CHEMICAL PHYSICS, 127 (11), 114105 (2007). 
 Gaussian basis sets for accurate calculations on molecular systems in
 gas and condensed phases.
 https://doi.org/10.1063/1.2770708

 Kuhne, TD; Krack, M; Mohamed, FR; Parrinello, M. 
 PHYSICAL REVIEW LETTERS, 98 (6), 066401 (2007). 
 Efficient and accurate Car-Parrinello-like approach to
 Born-Oppenheimer molecular dynamics.
 https://doi.org/10.1103/PhysRevLett.98.066401

 Laino, T; Mohamed, F; Laio, A; Parrinello, M. 
 JOURNAL OF CHEMICAL THEORY AND COMPUTATION, 2 (5), 1370-1378 (2006). 
 An efficient linear-scaling electrostatic coupling for treating
 periodic boundary conditions in QM/MM simulations.
 https://doi.org/10.1021/ct6001169

 Laino, T; Mohamed, F; Laio, A; Parrinello, M. 
 JOURNAL OF CHEMICAL THEORY AND COMPUTATION, 1 (6), 1176-1184 (2005). 
 An efficient real space multigrid QM/MM electrostatic coupling.
 https://doi.org/10.1021/ct050123f

 Krack, M. 
 THEORETICAL CHEMISTRY ACCOUNTS, 114 (1-3), 145-152 (2005). 
 Pseudopotentials for H to Kr optimized for gradient-corrected
 exchange-correlation functionals.
 https://doi.org/10.1007/s00214-005-0655-y

 VandeVondele, J; Krack, M; Mohamed, F; Parrinello, M; Chassaing, T;
 Hutter, J. COMPUTER PHYSICS COMMUNICATIONS, 167 (2), 103-128 (2005). 
 QUICKSTEP: Fast and accurate density functional calculations using a
 mixed Gaussian and plane waves approach.
 https://doi.org/10.1016/j.cpc.2004.12.014

 Frigo, M; Johnson, SG. 
 PROCEEDINGS OF THE IEEE, 93 (2), 216-231 (2005). 
 The design and implementation of FFTW3.
 https://doi.org/10.1109/JPROC.2004.840301

 Kolafa, J. 
 JOURNAL OF COMPUTATIONAL CHEMISTRY, 25 (3), 335-342 (2004). 
 Time-reversible always stable predictor-corrector method for molecular dynamics of polarizable molecules.
 https://doi.org/10.1002/jcc.10385

 VandeVondele, J; Hutter, J. 
 JOURNAL OF CHEMICAL PHYSICS, 118 (10), 4365-4369 (2003). 
 An efficient orbital transformation method for electronic structure
 calculations.
 https://doi.org/10.1063/1.1543154

 Hartwigsen, C; Goedecker, S; Hutter, J. 
 PHYSICAL REVIEW B, 58 (7), 3641-3662 (1998). 
 Relativistic separable dual-space Gaussian pseudopotentials from H to Rn.
 https://doi.org/10.1103/PhysRevB.58.3641

 Lippert, G; Hutter, J; Parrinello, M. 
 MOLECULAR PHYSICS, 92 (3), 477-487 (1997). 
 A hybrid Gaussian and plane wave density functional scheme.
 https://doi.org/10.1080/002689797170220

 Goedecker, S; Teter, M; Hutter, J. 
 PHYSICAL REVIEW B, 54 (3), 1703-1710 (1996). 
 Separable dual-space Gaussian pseudopotentials.
 https://doi.org/10.1103/PhysRevB.54.1703

 ESSMANN, U; PERERA, L; BERKOWITZ, ML; DARDEN, T; LEE, H; PEDERSEN, LG. 
 JOURNAL OF CHEMICAL PHYSICS, 103 (19), 8577-8593 (1995). 
 A SMOOTH PARTICLE MESH EWALD METHOD.
 https://doi.org/10.1063/1.470117

 BLOCHL, PE. 
 JOURNAL OF CHEMICAL PHYSICS, 103 (17), 7422-7428 (1995). 
 ELECTROSTATIC DECOUPLING OF PERIODIC IMAGES OF PLANE-WAVE-EXPANDED
 DENSITIES AND DERIVED ATOMIC POINT CHARGES.
 https://doi.org/10.1063/1.470314

 BECKE, AD. PHYSICAL REVIEW A, 38 (6), 3098-3100 (1988). 
 DENSITY-FUNCTIONAL EXCHANGE-ENERGY APPROXIMATION WITH CORRECT
 ASYMPTOTIC-BEHAVIOR.
 https://doi.org/10.1103/PhysRevA.38.3098

 LEE, CT; YANG, WT; PARR, RG. 
 PHYSICAL REVIEW B, 37 (2), 785-789 (1988). 
 DEVELOPMENT OF THE COLLE-SALVETTI CORRELATION-ENERGY FORMULA INTO A
 FUNCTIONAL OF THE ELECTRON-DENSITY.
 https://doi.org/10.1103/PhysRevB.37.785


 -------------------------------------------------------------------------------
 -                                                                             -
 -                                T I M I N G                                  -
 -                                                                             -
 -------------------------------------------------------------------------------
 SUBROUTINE                       CALLS  ASD         SELF TIME        TOTAL TIME
                                MAXIMUM       AVERAGE  MAXIMUM  AVERAGE  MAXIMUM
 CP2K                                 1  1.0    0.014    0.017   26.152   26.154
 qs_mol_dyn_low                       1  2.0    0.005    0.006   21.884   21.969
 velocity_verlet                      1  3.0    0.001    0.001    8.076    8.076
 qs_forces                            2  3.5    0.001    0.001    7.776    7.776
 qs_energies                          2  4.5    0.001    0.001    7.386    7.387
 pw_transfer                        362 11.8    0.037    0.043    6.797    6.943
 fft_wrap_pw1pw2                    301 13.0    0.002    0.002    6.753    6.894
 fft3d_ps                           301 15.0    0.111    0.141    6.658    6.808
 mp_alltoall_z22v                   301 17.0    6.519    6.758    6.519    6.758
 yz_to_x                            140 15.6    0.010    0.014    6.387    6.705
 qmmm_forces                          2  3.5    0.001    0.002    5.519    5.520
 qmmm_forces_with_gaussian            2  4.5    0.270    0.275    5.455    5.506
 qmmm_el_coupling                     2  3.5    0.000    0.000    4.706    4.773
 qmmm_elec_with_gaussian              2  4.5    0.252    0.276    4.706    4.773
 qmmm_env_create                      1  2.0    0.034    0.038    4.151    4.155
 pw_restrict_s3                       6  5.5    1.135    1.203    4.044    4.092
 scf_env_do_scf                       2  5.5    0.000    0.000    3.675    3.675
 pw_integral_ab                     883  7.0    3.197    3.298    3.328    3.485
 scf_env_do_scf_inner_loop           15  6.7    0.000    0.001    3.247    3.250
 fist_calc_energy_force               2  3.5    0.002    0.002    3.167    3.225
 qmmm_elec_with_gaussian:spline       2  5.5    0.000    0.000    3.169    3.206
 pw_prolongate_s3                     6  6.5    0.899    0.949    3.169    3.206
 fft_wrap_pw1pw2_10                  42 12.8    0.000    0.001    3.039    3.171
 spme_evaluate                        2  4.5    0.002    0.003    3.108    3.108
 qs_init_subsys                       1  3.0    0.001    0.001    3.050    3.052
 qs_env_setup                         1  4.0    0.000    0.001    0.416    3.049
 qs_env_rebuild_pw_env                5  5.0    0.000    0.001    0.415    3.048
 pw_env_rebuild                       1  6.0    0.000    0.001    0.414    3.048
 mp_comm_dup                         21  5.0    0.385    3.019    0.385    3.019
 init_qs_kind_set                     1  4.0    0.000    0.000    2.633    3.012
 init_qs_kind                         4  5.0    0.000    0.000    2.633    3.012
 init_orb_basis_set                   4  6.0    0.000    0.000    2.633    3.012
 init_cphi_and_sphi                   4  7.0    2.633    3.012    2.633    3.012
 fft_wrap_pw1pw2_200                191 14.2    0.032    0.042    2.930    2.967
 qs_energies_init_hamiltonians        2  5.5    0.001    0.001    2.606    2.607
 qs_env_update_s_mstruct              2  6.5    0.000    0.000    2.597    2.603
 calculate_rho_core                   2  7.5    0.001    0.003    2.488    2.520
 qs_rho_update_rho                   17  7.8    0.000    0.001    2.288    2.290
 calculate_rho_elec                  17  8.8    0.002    0.002    2.287    2.289
 rebuild_ks_matrix                   17  8.4    0.000    0.001    2.266    2.268
 qs_ks_build_kohn_sham_matrix        17  9.4    0.004    0.006    2.266    2.268
 rs_pw_transfer                     148 11.6    0.002    0.003    1.877    2.070
 density_rs2pw                       17  9.8    0.001    0.001    1.773    1.972
 mp_sum_dm3                          13  5.2    1.841    1.921    1.841    1.921
 qs_ks_update_qs_env                 17  7.7    0.000    0.000    1.913    1.915
 sum_up_and_integrate                17 10.4    0.002    0.004    1.556    1.598
 integrate_v_rspace                  17 11.4    0.001    0.001    1.554    1.595
 init_scf_run                         2  5.5    0.000    0.000    1.096    1.096
 scf_env_initial_rho_setup            2  6.5    0.000    0.000    1.096    1.096
 potential_pw2rs                     17 12.4    0.001    0.001    0.978    0.983
 pw_zero                            734  6.7    0.905    0.964    0.905    0.964
 pw_axpy                            558  7.8    0.913    0.935    0.913    0.935
 dbcsr_multiply_generic             350 12.8    0.008    0.009    0.428    0.856
 init_cube_info                       8  5.5    0.621    0.776    0.621    0.776
 qs_ks_qmmm_create                    1  3.0    0.000    0.000    0.619    0.775
 mp_waitall_1                     76670 15.9    0.701    0.758    0.701    0.758
 fist_init                            1  3.0    0.000    0.000    0.730    0.731
 mp_waitany                        1740 12.8    0.483    0.722    0.483    0.722
 grid_collocate_task_list            17  9.8    0.497    0.705    0.497    0.705
 rs_pw_transfer_RS2PW_200            19 11.5    0.156    0.234    0.464    0.656
 grid_integrate_task_list            17 12.4    0.151    0.610    0.151    0.610
 rdparm_amber_8                       2  6.5    0.460    0.481    0.565    0.569
 mp_alltoall_d11v                   363 13.3    0.431    0.548    0.431    0.548
 fft_wrap_pw1pw2_50                  34 14.1    0.001    0.003    0.499    0.547
 rs_gather_matrices                  17 12.4    0.000    0.000    0.424    0.542
 rs_pw_transfer_PW2RS_200            19 13.8    0.265    0.295    0.503    0.535
 mp_sum_l                          1931 12.3    0.092    0.531    0.092    0.531
 -------------------------------------------------------------------------------

 The number of warnings for this run is : 0
 
 -------------------------------------------------------------------------------
  **** **** ******  **  PROGRAM ENDED AT                 2021-09-01 15:30:24.401
 ***** ** ***  *** **   PROGRAM RAN ON                                 nid001633
 **    ****   ******    PROGRAM RAN BY                                     hjbio
 ***** **    ** ** **   PROGRAM PROCESS ID                                 80955
  **** **  *******  **  PROGRAM STOPPED IN /lus/cls01095/work/d118/d118/hjbio/qm
                                           mm-benchmarking/archer2/CPU/cp2kMD/MQ
                                           AE/1STEPS/2NODES/128CPN/1THREADS
