 DBCSR| CPU Multiplication driver                                           XSMM
 DBCSR| Multrec recursion limit                                              512
 DBCSR| Multiplication stack size                                           1000
 DBCSR| Maximum elements for images                                    UNLIMITED
 DBCSR| Multiplicative factor virtual images                                   1
 DBCSR| Use multiplication densification                                       T
 DBCSR| Multiplication size stacks                                             3
 DBCSR| Use memory pool for CPU allocation                                     F
 DBCSR| Number of 3D layers                                               SINGLE
 DBCSR| Use MPI memory allocation                                              F
 DBCSR| Use RMA algorithm                                                      F
 DBCSR| Use Communication thread                                               T
 DBCSR| Communication thread load                                             87
 DBCSR| MPI: My node id                                                        0
 DBCSR| MPI: Number of nodes                                                 288
 DBCSR| OMP: Current number of threads                                         1
 DBCSR| OMP: Max number of threads                                             1
 DBCSR| Split modifier for TAS multiplication algorithm                  1.0E+00


  **** **** ******  **  PROGRAM STARTED AT               2021-02-20 16:50:26.155
 ***** ** ***  *** **   PROGRAM STARTED ON                               r1i2n16
 **    ****   ******    PROGRAM STARTED BY                                hollyj
 ***** **    ** ** **   PROGRAM PROCESS ID                                 61606
  **** **  *******  **  PROGRAM STARTED IN /lustre/home/w68/hollyj/CP2K/Cirrus/C
                                           PU/cp2kMD/MQAE/6STEPS/8NODES/36CPN/1T
                                           HREADS

 CP2K| version string:                                          CP2K version 8.1
 CP2K| source code revision number:                                  git:0b61f2f
 CP2K| cp2kflags: omp libint fftw3 libxc elpa parallel mpi3 scalapack xsmm spgli
 CP2K|            b mkl
 CP2K| is freely available from                            https://www.cp2k.org/
 CP2K| Program compiled at                           Mon Feb 1 13:14:42 GMT 2021
 CP2K| Program compiled on                                         cirrus-login1
 CP2K| Program compiled for                                           Cirrus-gcc
 CP2K| Data directory path       /lustre/home/w68/hollyj/CP2K/v8.1/cp2k-8.1/data
 CP2K| Input file name                                             mqae-cp2k.inp

 GLOBAL| Force Environment number                                              1
 GLOBAL| Basis set file name                                        BASIS_MOLOPT
 GLOBAL| Potential file name                                           POTENTIAL
 GLOBAL| MM Potential file name                                     MM_POTENTIAL
 GLOBAL| Coordinate file name                                           mqae.pdb
 GLOBAL| Method name                                                        CP2K
 GLOBAL| Project name                                                  MQAE-BLYP
 GLOBAL| Preferred FFT library                                             FFTW3
 GLOBAL| Preferred diagonalization lib.                                     ELPA
 GLOBAL| Run type                                                             MD
 GLOBAL| All-to-all communication in single precision                          F
 GLOBAL| FFTs using library dependent lengths                                  F
 GLOBAL| Global print level                                                  LOW
 GLOBAL| MPI I/O enabled                                                       T
 GLOBAL| Total number of message passing processes                           288
 GLOBAL| Number of threads for this process                                    1
 GLOBAL| This output is from process                                           0
 GLOBAL| CPU model name                Intel(R) Xeon(R) CPU E5-2695 v4 @ 2.10GHz
 GLOBAL| CPUID                                                              1002
 GLOBAL| Compiled for CPUID                                                 1001

 *** HINT in environment.F:802 :: The compiler target flags (x86_avx) used ***
 *** to build this binary cannot exploit all extensions of this CPU model  ***
 *** (x86_avx2). Consider compiler target flags as part of FCFLAGS and     ***
 *** CFLAGS (ARCH file).                                                   ***


 MEMORY| system memory details [Kb]
 MEMORY|                        rank 0           min           max       average
 MEMORY| MemTotal            263692172     263692168     263692180     263692173
 MEMORY| MemFree             257483940     257483940     257743260     257616397
 MEMORY| Buffers                     0             0             0             0
 MEMORY| Cached                 682516        625928        682516        656026
 MEMORY| Slab                  1117112        956740       1117112       1049406
 MEMORY| SReclaimable           342692        304912        342692        324371
 MEMORY| MemLikelyFree       258509148     258488300     258728260     258596794



                      ************* ******** ***********   
                     ************* **********************  
                     ****     **** ****      ***********   
                     ******** ****  *******     ****       
                     *******  ****   *******   ****        
                     ****     ****       ****  ****        
                     ****     **** **********  ****        
                      ****     **** ********    ****       
                     FRONTIERS IN SIMULATION TECHNOLOGY    
                                                           
                        C.J. Mundy, S. Balasubramanian,    
                     Ken Bagchi, J. Hutter, Ari Seitsonen  
                      IFW Kuo, T. Laino, J. VandeVondele   
                                 Version 1.0               

                                                           


 EWALD| Summation is done by:                                               SPME
 EWALD| Alpha parameter [       ANGSTROM^-1]                              0.4000
 EWALD| Real Space Cutoff [          ANGSTROM]                            8.4348
 EWALD| G-space max. Miller index                         80        80        80
 EWALD| Spline interpolation order                                             6

 FORCEFIELD| WARNING: A non Critical ForceField parameter is missing! CP2K GOES!
 FORCEFIELD| Non critical parameters are:Urey-Bradley,Torsions,Impropers, Opbends and 1-4
 FORCEFIELD| All missing parameters will not contribute to the potential energy!
 FORCEFIELD| Activate the print key FF_INFO to have a list of missing parameters

 CHARGE_INFO| Total Charge of the Classical System:                     0.000000

 SPLINE_INFO| Generating 465 splines for NONBONDED14 interactions 
              Due to 30 different atomic kinds
  ...46  ...92  ...138  ...184  ...230  ...276  ...322  ...368  ...414  ...460
 SPLINE_INFO| Number of unique splines computed:            22
 SPLINE_INFO| Done

 SPLINE_INFO| Generating 465 splines for NONBONDED interactions 
              Due to 30 different atomic kinds
  ...46  ...92  ...138  ...184  ...230  ...276  ...322  ...368  ...414  ...460
 SPLINE_INFO| Number of unique splines computed:            22
 SPLINE_INFO| Done

 *******************************************************************************
 *******************************************************************************
 **                                                                           **
 **     #####                         ##              ##                      **
 **    ##   ##            ##          ##              ##                      **
 **   ##     ##                       ##            ######                    **
 **   ##     ##  ##   ##  ##   #####  ##  ##   ####   ##    #####    #####    **
 **   ##     ##  ##   ##  ##  ##      ## ##   ##      ##   ##   ##  ##   ##   **
 **   ##  ## ##  ##   ##  ##  ##      ####     ###    ##   ######   ######    **
 **    ##  ###   ##   ##  ##  ##      ## ##      ##   ##   ##       ##        **
 **     #######   #####   ##   #####  ##  ##  ####    ##    #####   ##        **
 **           ##                                                    ##        **
 **                                                                           **
 **                                                ... make the atoms dance   **
 **                                                                           **
 **            Copyright (C) by CP2K developers group (2000 - 2020)           **
 **                      J. Chem. Phys. 152, 194103 (2020)                    **
 **                                                                           **
 *******************************************************************************


 TOTAL NUMBERS AND MAXIMUM NUMBERS

  Total number of            - Atomic kinds:                                   4
                             - Atoms:                                         34
                             - Shell sets:                                    34
                             - Shells:                                       138
                             - Primitive Cartesian functions:                238
                             - Cartesian basis functions:                    332
                             - Spherical basis functions:                    314

  Maximum angular momentum of- Orbital basis functions:                        2
                             - Local part of the GTH pseudopotential:          2
                             - Non-local part of the GTH pseudopotential:      0


 SCF PARAMETERS         Density guess:                                   RESTART
                        --------------------------------------------------------
                        max_scf:                                             300
                        max_scf_history:                                       0
                        max_diis:                                              4
                        --------------------------------------------------------
                        eps_scf:                                        1.00E-06
                        eps_scf_history:                                0.00E+00
                        eps_diis:                                       1.00E-01
                        eps_eigval:                                     1.00E-05
                        --------------------------------------------------------
                        level_shift [a.u.]:                                 0.00
                        --------------------------------------------------------
                        No outer SCF

 *******************************************************************************
 *******************************************************************************
 **                                                                           **
 **             #######  ##     ## ##     ## ##     ##                        **
 **            ##     ## ###   ### ###   ### ###   ###                        **
 **            ##     ## #### #### #### #### #### ####                        **
 **            ##     ## ## ### ## ## ### ## ## ### ##                        **
 **            ##  ## ## ##     ## ##     ## ##     ##                        **
 **            ##    ##  ##     ## ##     ## ##     ##  T.Laino and F.Mohamed **
 **             ##### ## ##     ## ##     ## ##     ##  2005 - 2015           **
 **                                                                           **
 **                                                     Calculation Started.. **
 *******************************************************************************
 *******************************************************************************

 MD_PAR| Molecular dynamics protocol (MD input parameters)
 MD_PAR| Ensemble type                                                       NVE
 MD_PAR| Number of time steps                                                  6
 MD_PAR| Time step [fs]                                                 1.000000
 MD_PAR| Temperature [K]                                              300.000000
 MD_PAR| Temperature tolerance [K]                                      0.000000
 MD_PAR| Print MD information every                                    1 step(s)
 MD_PAR| File type   Print frequency [steps]                          File names
 MD_PAR| Coordinates          1                                   MQAE-pos-1.xyz
 MD_PAR| Velocities           1                                   MQAE-vel-1.xyz
 MD_PAR| Energies             1                                      MQAE-1.ener
 MD_PAR| Dump                20                                   MQAE-1.restart

 ROT| Rotational analysis information
 ROT| Principal axes and moments of inertia [a.u.]
 ROT|                           1                   2                   3
 ROT| Eigenvalues      8.16955424013E+10   8.26770351780E+10   8.33145263212E+10
 ROT|      x              0.339476722416      0.927826629059     -0.154574581827
 ROT|      y              0.779693760491     -0.369496170761     -0.505519751982
 ROT|      z              0.526149403486     -0.051091351538      0.848855982490
 ROT| Number of rotovibrational vectors                                        6

 DOF| Calculation of degrees of freedom
 DOF| Number of atoms                                                       7186
 DOF| Number of intramolecular constraints                                     0
 DOF| Number of intermolecular constraints                                     0
 DOF| Invariants (translations + rotations)                                    3
 DOF| Degrees of freedom                                                   21555

 DOF| Restraints information
 DOF| Number of intramolecular restraints                                      0
 DOF| Number of intermolecular restraints                                      0

 MD_VEL| Velocities initialization
 MD_VEL| Initial temperature [K]                                      300.000000
 MD_VEL| COM velocity            -0.0000000000     0.0000000000    -0.0000000000

  Translating the system in order to center the QM fragment in the QM box.

 Number of electrons:                                                         94
 Number of occupied orbitals:                                                 47
 Number of molecular orbitals:                                                47

 Number of orbital functions:                                                314
 Number of independent orbital functions:                                    314

 Extrapolation method: initial_guess


 SCF WAVEFUNCTION OPTIMIZATION

  ----------------------------------- OT ---------------------------------------
  Minimizer      : DIIS                : direct inversion
                                         in the iterative subspace
                                         using   7 DIIS vectors
                                         safer DIIS on
  Preconditioner : FULL_ALL            : diagonalization, state selective
  Precond_solver : DEFAULT
  stepsize       :    0.15000000                  energy_gap     :    0.08000000
  eps_taylor     :   0.10000E-15                  max_taylor     :             4
  ----------------------------------- OT ---------------------------------------

  Step     Update method      Time    Convergence         Total energy    Change
  ------------------------------------------------------------------------------
  Decoupling Energy:                                               0.0725225470
  Recoupling Energy:                                              -0.0186086616
     1 OT DIIS     0.15E+00    0.6     0.00000556      -146.8268108731 -1.47E+02
  Decoupling Energy:                                               0.0725225167
  Recoupling Energy:                                              -0.0186086642
     2 OT DIIS     0.15E+00    0.5     0.00000254      -146.8268109193 -4.62E-08
  Decoupling Energy:                                               0.0725223233
  Recoupling Energy:                                              -0.0186086496
     3 OT DIIS     0.15E+00    0.5     0.00000280      -146.8268109254 -6.08E-09
  Decoupling Energy:                                               0.0725224230
  Recoupling Energy:                                              -0.0186086595
     4 OT DIIS     0.15E+00    0.5     0.00000038      -146.8268109292 -3.81E-09

  *** SCF run converged in     4 steps ***


  Electronic density on regular grids:        -93.9999999978        0.0000000022
  Core density on regular grids:               94.9999999999       -0.0000000001
  Total charge density on r-space grids:        1.0000000021
  Total charge density g-space grids:           1.0000000021

  Overlap energy of the core charge distribution:               0.00000599177744
  Self energy of the core charge distribution:               -359.57183942644110
  Core Hamiltonian energy:                                    109.64011022086873
  Hartree energy:                                             145.87568612604915
  Exchange-correlation energy:                                -42.44255599596160
  QM/MM Electrostatic energy:                                  -0.32821784547045

  Total energy:                                              -146.82681092917787
  Decoupling Energy:                                               0.0725224156
  Recoupling Energy:                                              -0.0186086578

 ENERGY| Total FORCE_EVAL ( QMMM ) energy [a.u.]:           -125.503710940015338

 MD_INI| MD initialization
 MD_INI| Potential energy [hartree]                          -0.125503710940E+03
 MD_INI| Total kinetic energy [hartree]                       0.102391057087E+02
 MD_INI| QM kinetic energy [hartree]                          0.538313910515E-01
 MD_INI| Total temperature [K]                                        300.000000
 MD_INI| QM temperature [K]                                           333.305658
 MD_INI| Cell volume [bohr^3]                                 4.911308927827E+05
 MD_INI| Cell volume [ang^3]                                  7.277808868775E+04
 MD_INI| Cell lengths [bohr]      7.88979558E+01  7.88979558E+01  7.88979558E+01
 MD_INI| Cell lengths [ang]       4.17510000E+01  4.17510000E+01  4.17510000E+01
 MD_INI| Cell angles [deg]        9.00000000E+01  9.00000000E+01  9.00000000E+01

  Translating the system in order to center the QM fragment in the QM box.

 Number of electrons:                                                         94
 Number of occupied orbitals:                                                 47
 Number of molecular orbitals:                                                47

 Number of orbital functions:                                                314
 Number of independent orbital functions:                                    314

 Extrapolation method: ASPC


 SCF WAVEFUNCTION OPTIMIZATION

  ----------------------------------- OT ---------------------------------------
  Minimizer      : DIIS                : direct inversion
                                         in the iterative subspace
                                         using   7 DIIS vectors
                                         safer DIIS on
  Preconditioner : FULL_ALL            : diagonalization, state selective
  Precond_solver : DEFAULT
  stepsize       :    0.15000000                  energy_gap     :    0.08000000
  eps_taylor     :   0.10000E-15                  max_taylor     :             4
  ----------------------------------- OT ---------------------------------------

  Step     Update method      Time    Convergence         Total energy    Change
  ------------------------------------------------------------------------------
  Decoupling Energy:                                               0.0725137987
  Recoupling Energy:                                              -0.0186075743
     1 OT DIIS     0.15E+00    0.4     0.00274275      -146.7109268232 -1.47E+02
  Decoupling Energy:                                               0.0723879226
  Recoupling Energy:                                              -0.0186017401
     2 OT DIIS     0.15E+00    0.5     0.00104140      -146.7208966710 -9.97E-03
  Decoupling Energy:                                               0.0724570788
  Recoupling Energy:                                              -0.0186050498
     3 OT DIIS     0.15E+00    0.5     0.00066076      -146.7221386701 -1.24E-03
  Decoupling Energy:                                               0.0723978777
  Recoupling Energy:                                              -0.0186016814
     4 OT DIIS     0.15E+00    0.5     0.00038720      -146.7224086487 -2.70E-04
  Decoupling Energy:                                               0.0724216362
  Recoupling Energy:                                              -0.0186034087
     5 OT DIIS     0.15E+00    0.5     0.00009431      -146.7224796063 -7.10E-05
  Decoupling Energy:                                               0.0724194857
  Recoupling Energy:                                              -0.0186030388
     6 OT DIIS     0.15E+00    0.5     0.00004935      -146.7224837768 -4.17E-06
  Decoupling Energy:                                               0.0724183736
  Recoupling Energy:                                              -0.0186031251
     7 OT DIIS     0.15E+00    0.5     0.00001392      -146.7224850185 -1.24E-06
  Decoupling Energy:                                               0.0724188139
  Recoupling Energy:                                              -0.0186031165
     8 OT DIIS     0.15E+00    0.5     0.00000613      -146.7224851201 -1.02E-07
  Decoupling Energy:                                               0.0724191333
  Recoupling Energy:                                              -0.0186031399
     9 OT DIIS     0.15E+00    0.5     0.00000189      -146.7224851470 -2.69E-08
  Decoupling Energy:                                               0.0724188799
  Recoupling Energy:                                              -0.0186031243
    10 OT DIIS     0.15E+00    0.5     0.00000116      -146.7224851490 -2.00E-09
  Decoupling Energy:                                               0.0724189566
  Recoupling Energy:                                              -0.0186031297
    11 OT DIIS     0.15E+00    0.5     0.00000032      -146.7224851500 -1.03E-09

  *** SCF run converged in    11 steps ***


  Electronic density on regular grids:        -94.0000000006       -0.0000000006
  Core density on regular grids:               94.9999999999       -0.0000000001
  Total charge density on r-space grids:        0.9999999993
  Total charge density g-space grids:           0.9999999993

  Overlap energy of the core charge distribution:               0.00003276526460
  Self energy of the core charge distribution:               -359.57183942644110
  Core Hamiltonian energy:                                    109.82317615825841
  Hartree energy:                                             145.78147910058198
  Exchange-correlation energy:                                -42.49962945462134
  QM/MM Electrostatic energy:                                  -0.25570429308968

  Total energy:                                              -146.72248515004711
  Decoupling Energy:                                               0.0724189684
  Recoupling Energy:                                              -0.0186031289

 ENERGY| Total FORCE_EVAL ( QMMM ) energy [a.u.]:           -154.940145014014149

 MD| ***************************************************************************
 MD| Step number                                                               1
 MD| Time [fs]                                                          1.000000
 MD| Conserved quantity [hartree]                                            NaN
 MD| ---------------------------------------------------------------------------
 MD|                                          Instantaneous             Averages
 MD| CPU time per MD step [s]                     17.644414            17.644414
 MD| Energy drift per atom [K]                          NaN   0.000000000000E+00
 MD| Potential energy [hartree]         -0.154940145014E+03  -0.154940145014E+03
 MD| Total kinetic energy [hartree]                     NaN                  NaN
 MD| QM kinetic energy [hartree]                        NaN                  NaN
 MD| Total temperature [K]                              NaN                  NaN
 MD| QM temperature [K]                                 NaN                  NaN
 MD| ***************************************************************************

  Translating the system in order to center the QM fragment in the QM box.

 Number of electrons:                                                         94
 Number of occupied orbitals:                                                 47
 Number of molecular orbitals:                                                47

 Number of orbital functions:                                                314
 Number of independent orbital functions:                                    314

 *******************************************************************************
 *   ___                                                                       *
 *  /   \                                                                      *
 * [ABORT]                                                                     *
 *  \___/    Cholesky decompose failed: the matrix is not positive definite or *
 *    |                              ill-conditioned.                          *
 *  O/|                                                                        *
 * /| |                                                                        *
 * / \                                                  fm/cp_fm_cholesky.F:95 *
 *******************************************************************************


 ===== Routine Calling Stack ===== 

           11 cp_fm_cholesky_decompose
           10 make_basis_sm
            9 reorthogonalize_vectors
            8 wfi_extrapolate
            7 scf_env_initial_rho_setup
            6 init_scf_run
            5 qs_energies
            4 qs_forces
            3 velocity_verlet
            2 qs_mol_dyn_low
            1 CP2K
