 DBCSR| CPU Multiplication driver                                           XSMM
 DBCSR| Multrec recursion limit                                              512
 DBCSR| Multiplication stack size                                           1000
 DBCSR| Maximum elements for images                                    UNLIMITED
 DBCSR| Multiplicative factor virtual images                                   1
 DBCSR| Use multiplication densification                                       T
 DBCSR| Multiplication size stacks                                             3
 DBCSR| Use memory pool for CPU allocation                                     F
 DBCSR| Number of 3D layers                                               SINGLE
 DBCSR| Use MPI memory allocation                                              F
 DBCSR| Use RMA algorithm                                                      F
 DBCSR| Use Communication thread                                               T
 DBCSR| Communication thread load                                             79
 DBCSR| MPI: My node id                                                        0
 DBCSR| MPI: Number of nodes                                                  12
 DBCSR| OMP: Current number of threads                                         3
 DBCSR| OMP: Max number of threads                                             3
 DBCSR| Split modifier for TAS multiplication algorithm                  1.0E+00


  **** **** ******  **  PROGRAM STARTED AT               2021-04-09 12:31:13.587
 ***** ** ***  *** **   PROGRAM STARTED ON                               r1i6n16
 **    ****   ******    PROGRAM STARTED BY                                hollyj
 ***** **    ** ** **   PROGRAM PROCESS ID                                 26785
  **** **  *******  **  PROGRAM STARTED IN /lustre/home/w68/hollyj/CP2K/Cirrus/C
                                           PU/cp2kMD/ClC-253-BLYP/1STEPS/1NODES/
                                           36CPN/3THREADS

 CP2K| version string:                                          CP2K version 8.1
 CP2K| source code revision number:                                  git:0b61f2f
 CP2K| cp2kflags: omp libint fftw3 libxc elpa parallel mpi3 scalapack xsmm spgli
 CP2K|            b mkl
 CP2K| is freely available from                            https://www.cp2k.org/
 CP2K| Program compiled at                           Mon Feb 1 13:14:42 GMT 2021
 CP2K| Program compiled on                                         cirrus-login1
 CP2K| Program compiled for                                           Cirrus-gcc
 CP2K| Data directory path       /lustre/home/w68/hollyj/CP2K/v8.1/cp2k-8.1/data
 CP2K| Input file name                                          ClC-253-cp2k.inp

 GLOBAL| Force Environment number                                              1
 GLOBAL| Basis set file name                                        BASIS_MOLOPT
 GLOBAL| Potential file name                                           POTENTIAL
 GLOBAL| MM Potential file name                                     MM_POTENTIAL
 GLOBAL| Coordinate file name                                            ClC.pdb
 GLOBAL| Method name                                                        CP2K
 GLOBAL| Project name                                               ClC-253-BLYP
 GLOBAL| Preferred FFT library                                             FFTW3
 GLOBAL| Preferred diagonalization lib.                                     ELPA
 GLOBAL| Run type                                                             MD
 GLOBAL| All-to-all communication in single precision                          F
 GLOBAL| FFTs using library dependent lengths                                  F
 GLOBAL| Global print level                                                  LOW
 GLOBAL| MPI I/O enabled                                                       T
 GLOBAL| Total number of message passing processes                            12
 GLOBAL| Number of threads for this process                                    3
 GLOBAL| This output is from process                                           0
 GLOBAL| CPU model name                Intel(R) Xeon(R) CPU E5-2695 v4 @ 2.10GHz
 GLOBAL| CPUID                                                              1002
 GLOBAL| Compiled for CPUID                                                 1001

 *** HINT in environment.F:802 :: The compiler target flags (x86_avx) used ***
 *** to build this binary cannot exploit all extensions of this CPU model  ***
 *** (x86_avx2). Consider compiler target flags as part of FCFLAGS and     ***
 *** CFLAGS (ARCH file).                                                   ***


 MEMORY| system memory details [Kb]
 MEMORY|                        rank 0           min           max       average
 MEMORY| MemTotal            263692180     263692180     263692180     263692180
 MEMORY| MemFree             260538480     260538472     260538480     260538472
 MEMORY| Buffers                     0             0             0             0
 MEMORY| Cached                 524884        524880        524884        524880
 MEMORY| Slab                   729344        729344        729376        729373
 MEMORY| SReclaimable           161280        161280        161280        161280
 MEMORY| MemLikelyFree       261224644     261224632     261224644     261224633



                      ************* ******** ***********   
                     ************* **********************  
                     ****     **** ****      ***********   
                     ******** ****  *******     ****       
                     *******  ****   *******   ****        
                     ****     ****       ****  ****        
                     ****     **** **********  ****        
                      ****     **** ********    ****       
                     FRONTIERS IN SIMULATION TECHNOLOGY    
                                                           
                        C.J. Mundy, S. Balasubramanian,    
                     Ken Bagchi, J. Hutter, Ari Seitsonen  
                      IFW Kuo, T. Laino, J. VandeVondele   
                                 Version 1.0               

                                                           


 EWALD| Summation is done by:                                               SPME
 EWALD| Alpha parameter [       ANGSTROM^-1]                              0.4000
 EWALD| Real Space Cutoff [          ANGSTROM]                            8.4348
 EWALD| G-space max. Miller index                         80        80        80
 EWALD| Spline interpolation order                                             6

 FORCEFIELD| WARNING: A non Critical ForceField parameter is missing! CP2K GOES!
 FORCEFIELD| Non critical parameters are:Urey-Bradley,Torsions,Impropers, Opbends and 1-4
 FORCEFIELD| All missing parameters will not contribute to the potential energy!
 FORCEFIELD| Activate the print key FF_INFO to have a list of missing parameters

 CHARGE_INFO| Total Charge of the Classical System:                     2.369895

 SPLINE_INFO| Generating 85491 splines for NONBONDED14 interactions 
              Due to 413 different atomic kinds
  ...8549  ...17098  ...25647  ...34196  ...42745  ...51294  ...59843  ...68392  ...76941  ...85490
 SPLINE_INFO| Number of unique splines computed:            254
 SPLINE_INFO| Done

 SPLINE_INFO| Generating 85491 splines for NONBONDED interactions 
              Due to 413 different atomic kinds
  ...8549  ...17098  ...25647  ...34196  ...42745  ...51294  ...59843  ...68392  ...76941  ...85490
 SPLINE_INFO| Number of unique splines computed:            254
 SPLINE_INFO| Done

 *******************************************************************************
 *******************************************************************************
 **                                                                           **
 **     #####                         ##              ##                      **
 **    ##   ##            ##          ##              ##                      **
 **   ##     ##                       ##            ######                    **
 **   ##     ##  ##   ##  ##   #####  ##  ##   ####   ##    #####    #####    **
 **   ##     ##  ##   ##  ##  ##      ## ##   ##      ##   ##   ##  ##   ##   **
 **   ##  ## ##  ##   ##  ##  ##      ####     ###    ##   ######   ######    **
 **    ##  ###   ##   ##  ##  ##      ## ##      ##   ##   ##       ##        **
 **     #######   #####   ##   #####  ##  ##  ####    ##    #####   ##        **
 **           ##                                                    ##        **
 **                                                                           **
 **                                                ... make the atoms dance   **
 **                                                                           **
 **            Copyright (C) by CP2K developers group (2000 - 2020)           **
 **                      J. Chem. Phys. 152, 194103 (2020)                    **
 **                                                                           **
 *******************************************************************************


 TOTAL NUMBERS AND MAXIMUM NUMBERS

  Total number of            - Atomic kinds:                                   6
                             - Atoms:                                        253
                             - Shell sets:                                   253
                             - Shells:                                       991
                             - Primitive Cartesian functions:               1770
                             - Cartesian basis functions:                   2309
                             - Spherical basis functions:                   2193

  Maximum angular momentum of- Orbital basis functions:                        2
                             - Local part of the GTH pseudopotential:          2
                             - Non-local part of the GTH pseudopotential:      2


 SCF PARAMETERS         Density guess:                                   RESTART
                        --------------------------------------------------------
                        max_scf:                                             300
                        max_scf_history:                                       0
                        max_diis:                                              4
                        --------------------------------------------------------
                        eps_scf:                                        1.00E-06
                        eps_scf_history:                                0.00E+00
                        eps_diis:                                       1.00E-01
                        eps_eigval:                                     1.00E-05
                        --------------------------------------------------------
                        level_shift [a.u.]:                                 0.00
                        --------------------------------------------------------
                        No outer SCF

 *******************************************************************************
 *******************************************************************************
 **                                                                           **
 **             #######  ##     ## ##     ## ##     ##                        **
 **            ##     ## ###   ### ###   ### ###   ###                        **
 **            ##     ## #### #### #### #### #### ####                        **
 **            ##     ## ## ### ## ## ### ## ## ### ##                        **
 **            ##  ## ## ##     ## ##     ## ##     ##                        **
 **            ##    ##  ##     ## ##     ## ##     ##  T.Laino and F.Mohamed **
 **             ##### ## ##     ## ##     ## ##     ##  2005 - 2015           **
 **                                                                           **
 **                                                     Calculation Started.. **
 *******************************************************************************
 *******************************************************************************

 MD_PAR| Molecular dynamics protocol (MD input parameters)
 MD_PAR| Ensemble type                                                       NVE
 MD_PAR| Number of time steps                                                  1
 MD_PAR| Time step [fs]                                                 1.000000
 MD_PAR| Temperature [K]                                              300.000000
 MD_PAR| Temperature tolerance [K]                                      0.000000
 MD_PAR| Print MD information every                                    1 step(s)
 MD_PAR| File type   Print frequency [steps]                          File names
 MD_PAR| Coordinates          1                           ClC-253-BLYP-pos-1.xyz
 MD_PAR| Velocities           1                           ClC-253-BLYP-vel-1.xyz
 MD_PAR| Energies             1                              ClC-253-BLYP-1.ener
 MD_PAR| Dump                20                           ClC-253-BLYP-1.restart

 ROT| Rotational analysis information
 ROT| Principal axes and moments of inertia [a.u.]
 ROT|                           1                   2                   3
 ROT| Eigenvalues      1.18228221563E+13   1.18772146411E+13   1.55923586977E+13
 ROT|      x             -0.973134378681     -0.230223222672      0.002597839626
 ROT|      y             -0.230225448758      0.973137141292     -0.000589052320
 ROT|      z              0.002392440703      0.001171315857      0.999996452117
 ROT| Number of rotovibrational vectors                                        6

 DOF| Calculation of degrees of freedom
 DOF| Number of atoms                                                     150925
 DOF| Number of intramolecular constraints                                     0
 DOF| Number of intermolecular constraints                                     0
 DOF| Invariants (translations + rotations)                                    3
 DOF| Degrees of freedom                                                  452772

 DOF| Restraints information
 DOF| Number of intramolecular restraints                                      0
 DOF| Number of intermolecular restraints                                      0

 MD_VEL| Velocities initialization
 MD_VEL| Initial temperature [K]                                      300.000000
 MD_VEL| COM velocity            -0.0000000000     0.0000000000     0.0000000000

  Translating the system in order to center the QM fragment in the QM box.

 Number of electrons:                                                        654
 Number of occupied orbitals:                                                327
 Number of molecular orbitals:                                               327

 Number of orbital functions:                                               2193
 Number of independent orbital functions:                                   2193

 Extrapolation method: initial_guess


 SCF WAVEFUNCTION OPTIMIZATION

  ----------------------------------- OT ---------------------------------------
  Minimizer      : DIIS                : direct inversion
                                         in the iterative subspace
                                         using   7 DIIS vectors
                                         safer DIIS on
  Preconditioner : FULL_ALL            : diagonalization, state selective
  Precond_solver : DEFAULT
  stepsize       :    0.15000000                  energy_gap     :    0.08000000
  eps_taylor     :   0.10000E-15                  max_taylor     :             4
  ----------------------------------- OT ---------------------------------------

  Step     Update method      Time    Convergence         Total energy    Change
  ------------------------------------------------------------------------------
  Decoupling Energy:                                               0.0675035111
  Recoupling Energy:                                              -0.0068223751
     1 OT DIIS     0.15E+00    6.3     0.00000111     -1098.7918323422 -1.10E+03
  Decoupling Energy:                                               0.0675004361
  Recoupling Energy:                                              -0.0068222921
     2 OT DIIS     0.15E+00    7.0     0.00000182     -1098.7918324061 -6.39E-08
  Decoupling Energy:                                               0.0675017270
  Recoupling Energy:                                              -0.0068223358
     3 OT DIIS     0.15E+00    7.0     0.00000098     -1098.7918324634 -5.73E-08

  *** SCF run converged in     3 steps ***


  Electronic density on regular grids:       -654.0000008477       -0.0000008477
  Core density on regular grids:              654.9999999994       -0.0000000006
  Total charge density on r-space grids:        0.9999991517
  Total charge density g-space grids:           0.9999991517

  Overlap energy of the core charge distribution:               0.00004213532864
  Self energy of the core charge distribution:              -2459.11679630764229
  Core Hamiltonian energy:                                    751.03829819305952
  Hartree energy:                                            1002.26599084248414
  Exchange-correlation energy:                               -294.03608875667067
  QM/MM Electrostatic energy:                                 -98.94327856993340

  Total energy:                                             -1098.79183246337379
  Decoupling Energy:                                               0.0675016129
  Recoupling Energy:                                              -0.0068223367

 ENERGY| Total FORCE_EVAL ( QMMM ) energy [a.u.]:          -1469.875700984456671

 MD_INI| MD initialization
 MD_INI| Potential energy [hartree]                          -0.146987570098E+04
 MD_INI| Total kinetic energy [hartree]                       0.215076797492E+03
 MD_INI| QM kinetic energy [hartree]                          0.369606607592E+00
 MD_INI| Total temperature [K]                                        300.000000
 MD_INI| QM temperature [K]                                           307.542546
 MD_INI| Cell volume [bohr^3]                                 9.853827160554E+06
 MD_INI| Cell volume [ang^3]                                  1.460186515536E+06
 MD_INI| Cell lengths [bohr]      2.39870119E+02  2.39870119E+02  1.71258698E+02
 MD_INI| Cell lengths [ang]       1.26933800E+02  1.26933800E+02  9.06262000E+01
 MD_INI| Cell angles [deg]        9.00000000E+01  9.00000000E+01  9.00000000E+01

  Translating the system in order to center the QM fragment in the QM box.

 Number of electrons:                                                        654
 Number of occupied orbitals:                                                327
 Number of molecular orbitals:                                               327

 Number of orbital functions:                                               2193
 Number of independent orbital functions:                                   2193

 Extrapolation method: ASPC


 SCF WAVEFUNCTION OPTIMIZATION

  ----------------------------------- OT ---------------------------------------
  Minimizer      : DIIS                : direct inversion
                                         in the iterative subspace
                                         using   7 DIIS vectors
                                         safer DIIS on
  Preconditioner : FULL_ALL            : diagonalization, state selective
  Precond_solver : DEFAULT
  stepsize       :    0.15000000                  energy_gap     :    0.08000000
  eps_taylor     :   0.10000E-15                  max_taylor     :             4
  ----------------------------------- OT ---------------------------------------

  Step     Update method      Time    Convergence         Total energy    Change
  ------------------------------------------------------------------------------
  Decoupling Energy:                                               0.0676658532
  Recoupling Energy:                                              -0.0068237527
     1 OT DIIS     0.15E+00    6.3     0.00038779     -1098.3649169402 -1.10E+03
  Decoupling Energy:                                               0.0674445569
  Recoupling Energy:                                              -0.0068207230
     2 OT DIIS     0.15E+00    7.0     0.00028012     -1098.3740152438 -9.10E-03
  Decoupling Energy:                                               0.0676512652
  Recoupling Energy:                                              -0.0068214650
     3 OT DIIS     0.15E+00    7.1     0.00045365     -1098.3736236497  3.92E-04
  Decoupling Energy:                                               0.0674776465
  Recoupling Energy:                                              -0.0068213531
     4 OT DIIS     0.15E+00    7.0     0.00017745     -1098.3760440198 -2.42E-03
  Decoupling Energy:                                               0.0674299755
  Recoupling Energy:                                              -0.0068207525
     5 OT DIIS     0.15E+00    7.0     0.00005926     -1098.3765439023 -5.00E-04
  Decoupling Energy:                                               0.0674468742
  Recoupling Energy:                                              -0.0068203542
     6 OT DIIS     0.15E+00    7.0     0.00004388     -1098.3765866378 -4.27E-05
  Decoupling Energy:                                               0.0674565707
  Recoupling Energy:                                              -0.0068208136
     7 OT DIIS     0.15E+00    7.0     0.00001587     -1098.3766086122 -2.20E-05
  Decoupling Energy:                                               0.0674431897
  Recoupling Energy:                                              -0.0068207177
     8 OT DIIS     0.15E+00    7.0     0.00000828     -1098.3766147350 -6.12E-06
  Decoupling Energy:                                               0.0674418194
  Recoupling Energy:                                              -0.0068205796
     9 OT DIIS     0.15E+00    7.0     0.00000615     -1098.3766170737 -2.34E-06
  Decoupling Energy:                                               0.0674451774
  Recoupling Energy:                                              -0.0068208128
    10 OT DIIS     0.15E+00    7.0     0.00000531     -1098.3766198761 -2.80E-06
  Decoupling Energy:                                               0.0674342587
  Recoupling Energy:                                              -0.0068206129
    11 OT DIIS     0.15E+00    7.0     0.00000394     -1098.3766225784 -2.70E-06
  Decoupling Energy:                                               0.0674351488
  Recoupling Energy:                                              -0.0068206950
    12 OT DIIS     0.15E+00    7.0     0.00000315     -1098.3766249102 -2.33E-06
  Decoupling Energy:                                               0.0674326702
  Recoupling Energy:                                              -0.0068207139
    13 OT DIIS     0.15E+00    7.0     0.00000297     -1098.3766264533 -1.54E-06
  Decoupling Energy:                                               0.0674322211
  Recoupling Energy:                                              -0.0068206876
    14 OT DIIS     0.15E+00    7.0     0.00000295     -1098.3766272700 -8.17E-07
  Decoupling Energy:                                               0.0674315990
  Recoupling Energy:                                              -0.0068207107
    15 OT DIIS     0.15E+00    7.0     0.00000271     -1098.3766281204 -8.50E-07
  Decoupling Energy:                                               0.0674308682
  Recoupling Energy:                                              -0.0068207162
    16 OT DIIS     0.15E+00    7.0     0.00000247     -1098.3766288346 -7.14E-07
  Decoupling Energy:                                               0.0674315678
  Recoupling Energy:                                              -0.0068207194
    17 OT DIIS     0.15E+00    7.0     0.00000220     -1098.3766294316 -5.97E-07
  Decoupling Energy:                                               0.0674323118
  Recoupling Energy:                                              -0.0068207585
    18 OT DIIS     0.15E+00    7.0     0.00000194     -1098.3766303410 -9.09E-07
  Decoupling Energy:                                               0.0674295111
  Recoupling Energy:                                              -0.0068207023
    19 OT DIIS     0.15E+00    7.0     0.00000176     -1098.3766309097 -5.69E-07
  Decoupling Energy:                                               0.0674302148
  Recoupling Energy:                                              -0.0068207360
    20 OT DIIS     0.15E+00    7.0     0.00000156     -1098.3766315911 -6.81E-07
  Decoupling Energy:                                               0.0674298222
  Recoupling Energy:                                              -0.0068207251
    21 OT DIIS     0.15E+00    7.0     0.00000147     -1098.3766321295 -5.38E-07
  Decoupling Energy:                                               0.0674290629
  Recoupling Energy:                                              -0.0068207126
    22 OT DIIS     0.15E+00    7.1     0.00000147     -1098.3766325344 -4.05E-07
  Decoupling Energy:                                               0.0674280755
  Recoupling Energy:                                              -0.0068207015
    23 OT DIIS     0.15E+00    7.0     0.00000146     -1098.3766329197 -3.85E-07
  Decoupling Energy:                                               0.0674276902
  Recoupling Energy:                                              -0.0068206929
    24 OT DIIS     0.15E+00    7.0     0.00000141     -1098.3766332141 -2.94E-07
  Decoupling Energy:                                               0.0674275611
  Recoupling Energy:                                              -0.0068206844
    25 OT DIIS     0.15E+00    7.0     0.00000132     -1098.3766335510 -3.37E-07
  Decoupling Energy:                                               0.0674271096
  Recoupling Energy:                                              -0.0068206806
    26 OT DIIS     0.15E+00    7.0     0.00000121     -1098.3766339171 -3.66E-07
  Decoupling Energy:                                               0.0674256583
  Recoupling Energy:                                              -0.0068206477
    27 OT DIIS     0.15E+00    7.0     0.00000117     -1098.3766341646 -2.48E-07
  Decoupling Energy:                                               0.0674255562
  Recoupling Energy:                                              -0.0068206517
    28 OT DIIS     0.15E+00    7.0     0.00000110     -1098.3766344854 -3.21E-07
  Decoupling Energy:                                               0.0674253778
  Recoupling Energy:                                              -0.0068206417
    29 OT DIIS     0.15E+00    7.1     0.00000107     -1098.3766347711 -2.86E-07
  Decoupling Energy:                                               0.0674249608
  Recoupling Energy:                                              -0.0068206323
    30 OT DIIS     0.15E+00    7.0     0.00000107     -1098.3766350576 -2.86E-07
  Decoupling Energy:                                               0.0674245015
  Recoupling Energy:                                              -0.0068206265
    31 OT DIIS     0.15E+00    7.0     0.00000107     -1098.3766353403 -2.83E-07
  Decoupling Energy:                                               0.0674245040
  Recoupling Energy:                                              -0.0068206233
    32 OT DIIS     0.15E+00    7.0     0.00000106     -1098.3766355441 -2.04E-07
  Decoupling Energy:                                               0.0674247391
  Recoupling Energy:                                              -0.0068206246
    33 OT DIIS     0.15E+00    7.0     0.00000103     -1098.3766358228 -2.79E-07
  Decoupling Energy:                                               0.0674248161
  Recoupling Energy:                                              -0.0068206269
    34 OT DIIS     0.15E+00    7.0     0.00000099     -1098.3766361323 -3.10E-07

  *** SCF run converged in    34 steps ***


  Electronic density on regular grids:       -654.0000005662       -0.0000005662
  Core density on regular grids:              654.9999999988       -0.0000000012
  Total charge density on r-space grids:        0.9999994326
  Total charge density g-space grids:           0.9999994326

  Overlap energy of the core charge distribution:               0.00004332465283
  Self energy of the core charge distribution:              -2459.11679630764229
  Core Hamiltonian energy:                                    750.78608054322081
  Hartree energy:                                            1002.45036695622025
  Exchange-correlation energy:                               -293.96930551315256
  QM/MM Electrostatic energy:                                 -98.52702513562576

  Total energy:                                             -1098.37663613232689
  Decoupling Energy:                                               0.0674242569
  Recoupling Energy:                                              -0.0068206125

 ENERGY| Total FORCE_EVAL ( QMMM ) energy [a.u.]:          -1447.997666804333221

 MD| ***************************************************************************
 MD| Step number                                                               1
 MD| Time [fs]                                                          1.000000
 MD| Conserved quantity [hartree]                            -0.124929046150E+04
 MD| ---------------------------------------------------------------------------
 MD|                                          Instantaneous             Averages
 MD| CPU time per MD step [s]                    499.644884           499.644884
 MD| Energy drift per atom [K]           0.115251040667E+02   0.000000000000E+00
 MD| Potential energy [hartree]         -0.144799766680E+04  -0.144799766680E+04
 MD| Total kinetic energy [hartree]      0.198707205306E+03   0.198707205306E+03
 MD| QM kinetic energy [hartree]         0.373153043354E+00   0.373153043354E+00
 MD| Total temperature [K]                       277.166865           277.166865
 MD| QM temperature [K]                          310.493467           310.493467
 MD| ***************************************************************************

 -------------------------------------------------------------------------------
 -                                                                             -
 -                                DBCSR STATISTICS                             -
 -                                                                             -
 -------------------------------------------------------------------------------
 COUNTER                                    TOTAL       BLAS       SMM       ACC
 flops     5 x     7 x     7               134260       0.0%    100.0%      0.0%
 flops    13 x     7 x     7               295568       0.0%    100.0%      0.0%
 flops     5 x    32 x    32             28057600       0.0%    100.0%      0.0%
 flops    96 x    32 x    32             39911424       0.0%    100.0%      0.0%
 flops   103 x    32 x    32             42821632       0.0%    100.0%      0.0%
 flops    96 x    32 x    39             48642048       0.0%    100.0%      0.0%
 flops    96 x    39 x    32             48642048       0.0%    100.0%      0.0%
 flops   103 x    32 x    39             52188864       0.0%    100.0%      0.0%
 flops   103 x    39 x    32             52188864       0.0%    100.0%      0.0%
 flops    32 x    32 x    32             53215232       0.0%    100.0%      0.0%
 flops    96 x    39 x    39             59282496       0.0%    100.0%      0.0%
 flops    13 x    32 x    32             61767680       0.0%    100.0%      0.0%
 flops   103 x    39 x    39             63605178       0.0%    100.0%      0.0%
 flops    32 x    32 x    39             64856064       0.0%    100.0%      0.0%
 flops    32 x    39 x    32             64856064       0.0%    100.0%      0.0%
 flops    32 x    39 x    39             79043328       0.0%    100.0%      0.0%
 flops   280 x    32 x    32            106086400       0.0%    100.0%      0.0%
 flops   326 x    32 x    32            123514880       0.0%    100.0%      0.0%
 flops   280 x    32 x    39            129292800       0.0%    100.0%      0.0%
 flops   280 x    39 x    32            129292800       0.0%    100.0%      0.0%
 flops   367 x    32 x    32            139048960       0.0%    100.0%      0.0%
 flops   393 x    32 x    32            148899840       0.0%    100.0%      0.0%
 flops   326 x    32 x    39            150533760       0.0%    100.0%      0.0%
 flops   326 x    39 x    32            150533760       0.0%    100.0%      0.0%
 flops   403 x    32 x    32            152688640       0.0%    100.0%      0.0%
 flops   280 x    39 x    39            157575600       0.0%    100.0%      0.0%
 flops   424 x    32 x    32            160645120       0.0%    100.0%      0.0%
 flops   367 x    32 x    39            169465920       0.0%    100.0%      0.0%
 flops   367 x    39 x    32            169465920       0.0%    100.0%      0.0%
 flops   393 x    32 x    39            181471680       0.0%    100.0%      0.0%
 flops   393 x    39 x    32            181471680       0.0%    100.0%      0.0%
 flops   326 x    39 x    39            183463020       0.0%    100.0%      0.0%
 flops   403 x    32 x    39            186089280       0.0%    100.0%      0.0%
 flops   403 x    39 x    32            186089280       0.0%    100.0%      0.0%
 flops   424 x    32 x    39            195786240       0.0%    100.0%      0.0%
 flops   424 x    39 x    32            195786240       0.0%    100.0%      0.0%
 flops   367 x    39 x    39            206536590       0.0%    100.0%      0.0%
 flops   393 x    39 x    39            221168610       0.0%    100.0%      0.0%
 flops   403 x    39 x    39            226796310       0.0%    100.0%      0.0%
 flops   424 x    39 x    39            238614480       0.0%    100.0%      0.0%
 flops    96 x    32 x    64            319291392       0.0%    100.0%      0.0%
 flops    96 x    64 x    32            319291392       0.0%    100.0%      0.0%
 flops    96 x    32 x   357            329011200       0.0%    100.0%      0.0%
 flops   103 x    64 x    32            342573056       0.0%    100.0%      0.0%
 flops   103 x    32 x    64            342573056       0.0%    100.0%      0.0%
 flops   103 x    32 x   357            353001600       0.0%    100.0%      0.0%
 flops    96 x    39 x    64            389136384       0.0%    100.0%      0.0%
 flops    96 x    64 x    39            389136384       0.0%    100.0%      0.0%
 flops    96 x    39 x   357            400982400       0.0%    100.0%      0.0%
 flops   103 x    64 x    39            417510912       0.0%    100.0%      0.0%
 flops   103 x    39 x    64            417510912       0.0%    100.0%      0.0%
 flops    32 x    64 x    32            425721856       0.0%    100.0%      0.0%
 flops    32 x    32 x    64            425721856       0.0%    100.0%      0.0%
 flops   103 x    39 x   357            430220700       0.0%    100.0%      0.0%
 flops    32 x    32 x   357            438681600       0.0%    100.0%      0.0%
 flops   280 x    32 x   357            499000320       0.0%    100.0%      0.0%
 flops    32 x    64 x    39            518848512       0.0%    100.0%      0.0%
 flops    32 x    39 x    64            518848512       0.0%    100.0%      0.0%
 flops    32 x    39 x   357            534643200       0.0%    100.0%      0.0%
 flops     5 x     7 x     5            578085200       0.0%    100.0%      0.0%
 flops   326 x    32 x   357            580978944       0.0%    100.0%      0.0%
 flops   280 x    39 x   357            608156640       0.0%    100.0%      0.0%
 flops     5 x     5 x    32            620116800       0.0%    100.0%      0.0%
 flops   367 x    32 x   357            654046848       0.0%    100.0%      0.0%
 flops    96 x    32 x   362            667238400       0.0%    100.0%      0.0%
 flops    96 x    32 x   367            676454400       0.0%    100.0%      0.0%
 flops   393 x    32 x   357            700382592       0.0%    100.0%      0.0%
 flops   326 x    39 x   357            708068088       0.0%    100.0%      0.0%
 flops   103 x    32 x   362            715891200       0.0%    100.0%      0.0%
 flops   403 x    32 x   357            718204032       0.0%    100.0%      0.0%
 flops   103 x    32 x   367            725779200       0.0%    100.0%      0.0%
 flops   424 x    32 x   357            755629056       0.0%    100.0%      0.0%
 flops     5 x     5 x    39            755767350       0.0%    100.0%      0.0%
 flops   367 x    39 x   357            797119596       0.0%    100.0%      0.0%
 flops    96 x    39 x   362            813196800       0.0%    100.0%      0.0%
 flops    96 x    39 x   367            824428800       0.0%    100.0%      0.0%
 flops   280 x    32 x    64            848691200       0.0%    100.0%      0.0%
 flops   280 x    64 x    32            848691200       0.0%    100.0%      0.0%
 flops   393 x    39 x   357            853591284       0.0%    100.0%      0.0%
 flops   103 x    39 x   362            872492400       0.0%    100.0%      0.0%
 flops   403 x    39 x   357            875311164       0.0%    100.0%      0.0%
 flops   103 x    39 x   367            884543400       0.0%    100.0%      0.0%
 flops    32 x    32 x   362            889651200       0.0%    100.0%      0.0%
 flops    32 x    32 x   367            901939200       0.0%    100.0%      0.0%
 flops   424 x    39 x   357            920922912       0.0%    100.0%      0.0%
 flops   326 x    64 x    32            988119040       0.0%    100.0%      0.0%
 flops   326 x    32 x    64            988119040       0.0%    100.0%      0.0%
 flops   280 x    32 x   362           1011978240       0.0%    100.0%      0.0%
 flops   280 x    32 x   367           1025955840       0.0%    100.0%      0.0%
 flops   280 x    39 x    64           1034342400       0.0%    100.0%      0.0%
 flops   280 x    64 x    39           1034342400       0.0%    100.0%      0.0%
 flops    32 x    39 x   362           1084262400       0.0%    100.0%      0.0%
 flops    32 x    39 x   367           1099238400       0.0%    100.0%      0.0%
 flops   367 x    64 x    32           1112391680       0.0%    100.0%      0.0%
 flops   367 x    32 x    64           1112391680       0.0%    100.0%      0.0%
 flops   326 x    32 x   362           1178231808       0.0%    100.0%      0.0%
 flops   393 x    32 x    64           1191198720       0.0%    100.0%      0.0%
 flops   393 x    64 x    32           1191198720       0.0%    100.0%      0.0%
 flops   326 x    32 x   367           1194505728       0.0%    100.0%      0.0%
 flops   326 x    64 x    39           1204270080       0.0%    100.0%      0.0%
 flops   326 x    39 x    64           1204270080       0.0%    100.0%      0.0%
 flops   403 x    64 x    32           1221509120       0.0%    100.0%      0.0%
 flops   403 x    32 x    64           1221509120       0.0%    100.0%      0.0%
 flops   280 x    39 x   362           1233348480       0.0%    100.0%      0.0%
 flops   280 x    39 x   367           1250383680       0.0%    100.0%      0.0%
 flops    13 x     7 x     5           1271350080       0.0%    100.0%      0.0%
 flops     5 x     7 x    13           1271350080       0.0%    100.0%      0.0%
 flops   424 x    32 x    64           1285160960       0.0%    100.0%      0.0%
 flops   424 x    64 x    32           1285160960       0.0%    100.0%      0.0%
 flops   367 x    32 x   362           1326414336       0.0%    100.0%      0.0%
 flops   367 x    32 x   367           1344734976       0.0%    100.0%      0.0%
 flops    13 x     5 x    32           1353564160       0.0%    100.0%      0.0%
 flops     5 x    13 x    32           1354246400       0.0%    100.0%      0.0%
 flops   367 x    64 x    39           1355727360       0.0%    100.0%      0.0%
 flops   367 x    39 x    64           1355727360       0.0%    100.0%      0.0%
 flops   393 x    32 x   362           1420383744       0.0%    100.0%      0.0%
 flops   326 x    39 x   362           1435970016       0.0%    100.0%      0.0%
 flops   393 x    32 x   367           1440002304       0.0%    100.0%      0.0%
 flops   393 x    39 x    64           1451773440       0.0%    100.0%      0.0%
 flops   393 x    64 x    39           1451773440       0.0%    100.0%      0.0%
 flops   326 x    39 x   367           1455803856       0.0%    100.0%      0.0%
 flops   403 x    32 x   362           1456525824       0.0%    100.0%      0.0%
 flops   403 x    32 x   367           1476643584       0.0%    100.0%      0.0%
 flops   403 x    64 x    39           1488714240       0.0%    100.0%      0.0%
 flops   403 x    39 x    64           1488714240       0.0%    100.0%      0.0%
 flops   424 x    32 x   362           1532424192       0.0%    100.0%      0.0%
 flops   424 x    32 x   367           1553590272       0.0%    100.0%      0.0%
 flops   424 x    39 x    64           1566289920       0.0%    100.0%      0.0%
 flops   424 x    64 x    39           1566289920       0.0%    100.0%      0.0%
 flops   367 x    39 x   362           1616567472       0.0%    100.0%      0.0%
 flops   367 x    39 x   367           1638895752       0.0%    100.0%      0.0%
 flops    13 x     5 x    39           1649656320       0.0%    100.0%      0.0%
 flops     5 x    13 x    39           1650487800       0.0%    100.0%      0.0%
 flops   393 x    39 x   362           1731092688       0.0%    100.0%      0.0%
 flops   393 x    39 x   367           1755002808       0.0%    100.0%      0.0%
 flops   403 x    39 x   362           1775140848       0.0%    100.0%      0.0%
 flops   403 x    39 x   367           1799659368       0.0%    100.0%      0.0%
 flops   424 x    39 x   362           1867641984       0.0%    100.0%      0.0%
 flops   424 x    39 x   367           1893438144       0.0%    100.0%      0.0%
 flops    96 x    64 x    64           2554331136       0.0%    100.0%      0.0%
 flops    96 x    64 x   357           2632089600       0.0%    100.0%      0.0%
 flops   103 x    64 x    64           2740584448       0.0%    100.0%      0.0%
 flops    13 x     7 x    13           2759588832       0.0%    100.0%      0.0%
 flops   103 x    64 x   357           2824012800       0.0%    100.0%      0.0%
 flops    13 x    13 x    32           2964503360       0.0%    100.0%      0.0%
 flops    32 x    64 x    64           3405774848       0.0%    100.0%      0.0%
 flops    32 x    64 x   357           3509452800       0.0%    100.0%      0.0%
 flops    13 x    13 x    39           3612988470       0.0%    100.0%      0.0%
 flops   280 x    64 x   357           3992002560       0.0%    100.0%      0.0%
 flops   326 x    64 x   357           4647831552       0.0%    100.0%      0.0%
 flops     5 x     5 x    64           4960934400       0.0%    100.0%      0.0%
 flops   367 x    64 x   357           5232374784       0.0%    100.0%      0.0%
 flops    96 x    64 x   362           5337907200       0.0%    100.0%      0.0%
 flops    96 x    64 x   367           5411635200       0.0%    100.0%      0.0%
 flops   393 x    64 x   357           5603060736       0.0%    100.0%      0.0%
 flops   103 x    64 x   362           5727129600       0.0%    100.0%      0.0%
 flops   403 x    64 x   357           5745632256       0.0%    100.0%      0.0%
 flops   103 x    64 x   367           5806233600       0.0%    100.0%      0.0%
 flops   424 x    64 x   357           6045032448       0.0%    100.0%      0.0%
 flops   280 x    64 x    64           6789529600       0.0%    100.0%      0.0%
 flops    32 x    64 x   362           7117209600       0.0%    100.0%      0.0%
 flops    32 x    64 x   367           7215513600       0.0%    100.0%      0.0%
 flops   326 x    64 x    64           7904952320       0.0%    100.0%      0.0%
 flops   280 x    64 x   362           8095825920       0.0%    100.0%      0.0%
 flops   280 x    64 x   367           8207646720       0.0%    100.0%      0.0%
 flops   367 x    64 x    64           8899133440       0.0%    100.0%      0.0%
 flops   326 x    64 x   362           9425854464       0.0%    100.0%      0.0%
 flops   393 x    64 x    64           9529589760       0.0%    100.0%      0.0%
 flops   326 x    64 x   367           9556045824       0.0%    100.0%      0.0%
 flops   403 x    64 x    64           9772072960       0.0%    100.0%      0.0%
 flops   424 x    64 x    64          10281287680       0.0%    100.0%      0.0%
 flops   367 x    64 x   362          10611314688       0.0%    100.0%      0.0%
 flops   367 x    64 x   367          10757879808       0.0%    100.0%      0.0%
 flops    13 x     5 x    64          10828513280       0.0%    100.0%      0.0%
 flops     5 x    13 x    64          10833971200       0.0%    100.0%      0.0%
 flops   393 x    64 x   362          11363069952       0.0%    100.0%      0.0%
 flops   393 x    64 x   367          11520018432       0.0%    100.0%      0.0%
 flops   403 x    64 x   362          11652206592       0.0%    100.0%      0.0%
 flops   403 x    64 x   367          11813148672       0.0%    100.0%      0.0%
 flops   424 x    64 x   362          12259393536       0.0%    100.0%      0.0%
 flops   424 x    64 x   367          12428722176       0.0%    100.0%      0.0%
 flops    13 x    13 x    64          23716026880       0.0%    100.0%      0.0%
 flops     5 x    32 x     5          26426752000       0.0%    100.0%      0.0%
 flops    13 x    32 x     5          58118860800       0.0%    100.0%      0.0%
 flops     5 x    32 x    13          58118860800       0.0%    100.0%      0.0%
 flops    13 x    32 x    13         126152632320       0.0%    100.0%      0.0%
 flops inhomo. stacks                 69977806416     100.0%      0.0%      0.0%
 flops total                       771.291335E+09       9.1%     90.9%      0.0%
 flops max/rank                     75.069291E+09       9.2%     90.8%      0.0%
 matmuls inhomo. stacks                      8208     100.0%      0.0%      0.0%
 matmuls total                           69748266       0.0%    100.0%      0.0%
 number of processed stacks                273544       3.0%     97.0%      0.0%
 average stack size                                     1.0     262.8       0.0
 marketing flops                   824.253678E+09
 -------------------------------------------------------------------------------
 # multiplications                            749
 max memory usage/rank               1.585349E+09
 # max total images/rank                        3
 # max 3D layers                                1
 # MPI messages exchanged                   71904
 MPI messages size (bytes):
  total size                        45.896970E+09
  min size                           0.000000E+00
  max size                           3.317328E+06
  average size                     638.309000E+03
 MPI breakdown and total messages size (bytes):
             size <=      128                 252                        0
       128 < size <=     8192                 390                  3194880
      8192 < size <=    32768               13590                328877360
     32768 < size <=   131072               16464               1312951248
    131072 < size <=  4194304               41208              44252025568
   4194304 < size <= 16777216                   0                        0
  16777216 < size                               0                        0
 -------------------------------------------------------------------------------

 *** WARNING in dbcsr_mm.F:294 :: Using a non-square number of MPI ranks ***
 *** might lead to poor performance. Used ranks: 12 Suggested: 9 25      ***

 -------------------------------------------------------------------------------
 -                                                                             -
 -                      DBCSR MESSAGE PASSING PERFORMANCE                      -
 -                                                                             -
 -------------------------------------------------------------------------------
 ROUTINE             CALLS      AVE VOLUME [Bytes]
 MP_Bcast              187                     12.
 MP_Allreduce         4407                     10.
 MP_Alltoall          2525                  82898.
 MP_ISend            16400                 273252.
 MP_IRecv            16400                 266188.
 -------------------------------------------------------------------------------

 -------------------------------------------------------------------------------
 -                                                                             -
 -                                GRID STATISTICS                              -
 -                                                                             -
 -------------------------------------------------------------------------------
 LP    KERNEL             BACKEND                              COUNT     PERCENT
 3     collocate ortho    REF                               12386002      24.30%
 3     integrate ortho    REF                               12164336      23.87%
 2     collocate ortho    REF                                8063794      15.82%
 2     integrate ortho    REF                                7650251      15.01%
 4     integrate ortho    REF                                5403035      10.60%
 4     collocate ortho    REF                                5025548       9.86%
 5     integrate ortho    REF                                 257722       0.51%
 0     collocate general  REF                                   6072       0.01%
 1     integrate general  REF                                   6072       0.01%
 -------------------------------------------------------------------------------

 MEMORY| Estimated peak process memory [MiB]                                1551

 -------------------------------------------------------------------------------
 -                                                                             -
 -                         MESSAGE PASSING PERFORMANCE                         -
 -                                                                             -
 -------------------------------------------------------------------------------

 ROUTINE             CALLS      AVE VOLUME [Bytes]
 MP_Group                8
 MP_Bcast             8848               10230444.
 MP_Allreduce         2088                  19939.
 MP_Sync                 7
 MP_Alltoall           807               71595491.
 MP_SendRecv           872                  72198.
 MP_ISendRecv         1716                 139968.
 MP_Wait              4910
 MP_ISend             2690                1701452.
 MP_IRecv             2688                1702205.
 MP_Recv                30                 561408.
 -------------------------------------------------------------------------------


 -------------------------------------------------------------------------------
 -                                                                             -
 -                           R E F E R E N C E S                               -
 -                                                                             -
 -------------------------------------------------------------------------------
 
 CP2K version 8.1, the CP2K developers group (2020).
 CP2K is freely available from https://www.cp2k.org/ .

 Kuehne,Thomas D.; Iannuzzi,Marcella; Del Ben,Mauro;
 Rybkin,Vladimir V.; Seewald,Patrick; Stein,Frederick; Laino,Teodoro;
 Khaliullin,Rustam Z.; Schuett,Ole; Schiffmann,Florian; Golze,Dorothea;
 Wilhelm,Jan; Chulkov,Sergey; Bani-Hashemian,Mohammad Hossein;
 Weber,Valery; Borstnik,Urban; Taillefumier,Mathieu;
 Jakobovits,Alice Shoshana; Lazzaro,Alfio; Pabst,Hans; Mueller,Tiziano;
 Schade,Robert; Guidon,Manuel; Andermatt,Samuel; Holmberg,Nico;
 Schenter,Gregory K.; Hehn,Anna; Bussy,Augustin; Belleflamme,Fabian;
 Tabacchi,Gloria; Gloess,Andreas; Lass,Michael; Bethune,Iain;
 Mundy,Christopher J.; Plessl,Christian; Watkins,Matt;
 VandeVondele,Joost; Krack,Matthias; Hutter,Juerg. 
 The Journal of Chemical Physics, 152 (19), (2020). 
 CP2K: An electronic structure and molecular dynamics software package -
 Quickstep: Efficient and accurate electronic structure calculations.
 https://doi.org/10.1063/5.0007045

 Schuett, Ole; Messmer, Peter; Hutter, Juerg; VandeVondele, Joost. 
 Electronic Structure Calculations on Graphics Processing Units, John
 Wiley & Sons, Ltd, 173-190 (2016). 
 GPU-Accelerated Sparse Matrix-Matrix Multiplication for
 Linear Scaling Density Functional Theory.
 https://doi.org/10.1002/9781118670712.ch8

 Borstnik, U; VandeVondele, J; Weber, V; Hutter, J. 
 PARALLEL COMPUTING, 40 (5-6), 47-58 (2014). 
 Sparse matrix multiplication: The distributed block-compressed sparse
 row library.
 https://doi.org/10.1016/j.parco.2014.03.012

 Hutter, J; Iannuzzi, M; Schiffmann, F; VandeVondele, J. 
 WIREs Comput Mol Sci., 4 (1), 15-25 (2014). 
 CP2K: atomistic simulations of condensed matter systems.
 https://doi.org/10.1002/wcms.1159

 Marek, A; Blum, V; Johanni, R; Havu, V; Lang, B; Auckenthaler, T;
 Heinecke, A; Bungartz, H; Lederer, H. 
 Journal of Physics: Condensed Matter, 26 (21), (2014). 
 The ELPA library: scalable parallel eigenvalue solutions for
 electronic structure
 theory and computational science.
 https://doi.org/10.1088/0953-8984/26/21/213201

 VandeVondele, J; Hutter, J. 
 JOURNAL OF CHEMICAL PHYSICS, 127 (11), 114105 (2007). 
 Gaussian basis sets for accurate calculations on molecular systems in
 gas and condensed phases.
 https://doi.org/10.1063/1.2770708

 Kuhne, TD; Krack, M; Mohamed, FR; Parrinello, M. 
 PHYSICAL REVIEW LETTERS, 98 (6), 066401 (2007). 
 Efficient and accurate Car-Parrinello-like approach to
 Born-Oppenheimer molecular dynamics.
 https://doi.org/10.1103/PhysRevLett.98.066401

 Laino, T; Mohamed, F; Laio, A; Parrinello, M. 
 JOURNAL OF CHEMICAL THEORY AND COMPUTATION, 2 (5), 1370-1378 (2006). 
 An efficient linear-scaling electrostatic coupling for treating
 periodic boundary conditions in QM/MM simulations.
 https://doi.org/10.1021/ct6001169

 Laino, T; Mohamed, F; Laio, A; Parrinello, M. 
 JOURNAL OF CHEMICAL THEORY AND COMPUTATION, 1 (6), 1176-1184 (2005). 
 An efficient real space multigrid QM/MM electrostatic coupling.
 https://doi.org/10.1021/ct050123f

 Krack, M. 
 THEORETICAL CHEMISTRY ACCOUNTS, 114 (1-3), 145-152 (2005). 
 Pseudopotentials for H to Kr optimized for gradient-corrected
 exchange-correlation functionals.
 https://doi.org/10.1007/s00214-005-0655-y

 VandeVondele, J; Krack, M; Mohamed, F; Parrinello, M; Chassaing, T;
 Hutter, J. COMPUTER PHYSICS COMMUNICATIONS, 167 (2), 103-128 (2005). 
 QUICKSTEP: Fast and accurate density functional calculations using a
 mixed Gaussian and plane waves approach.
 https://doi.org/10.1016/j.cpc.2004.12.014

 Frigo, M; Johnson, SG. 
 PROCEEDINGS OF THE IEEE, 93 (2), 216-231 (2005). 
 The design and implementation of FFTW3.
 https://doi.org/10.1109/JPROC.2004.840301

 Kolafa, J. 
 JOURNAL OF COMPUTATIONAL CHEMISTRY, 25 (3), 335-342 (2004). 
 Time-reversible always stable predictor-corrector method for molecular dynamics of polarizable molecules.
 https://doi.org/10.1002/jcc.10385

 VandeVondele, J; Hutter, J. 
 JOURNAL OF CHEMICAL PHYSICS, 118 (10), 4365-4369 (2003). 
 An efficient orbital transformation method for electronic structure
 calculations.
 https://doi.org/10.1063/1.1543154

 Hartwigsen, C; Goedecker, S; Hutter, J. 
 PHYSICAL REVIEW B, 58 (7), 3641-3662 (1998). 
 Relativistic separable dual-space Gaussian pseudopotentials from H to Rn.
 https://doi.org/10.1103/PhysRevB.58.3641

 Lippert, G; Hutter, J; Parrinello, M. 
 MOLECULAR PHYSICS, 92 (3), 477-487 (1997). 
 A hybrid Gaussian and plane wave density functional scheme.
 https://doi.org/10.1080/002689797170220

 Goedecker, S; Teter, M; Hutter, J. 
 PHYSICAL REVIEW B, 54 (3), 1703-1710 (1996). 
 Separable dual-space Gaussian pseudopotentials.
 https://doi.org/10.1103/PhysRevB.54.1703

 ESSMANN, U; PERERA, L; BERKOWITZ, ML; DARDEN, T; LEE, H; PEDERSEN, LG. 
 JOURNAL OF CHEMICAL PHYSICS, 103 (19), 8577-8593 (1995). 
 A SMOOTH PARTICLE MESH EWALD METHOD.
 https://doi.org/10.1063/1.470117

 BLOCHL, PE. 
 JOURNAL OF CHEMICAL PHYSICS, 103 (17), 7422-7428 (1995). 
 ELECTROSTATIC DECOUPLING OF PERIODIC IMAGES OF PLANE-WAVE-EXPANDED
 DENSITIES AND DERIVED ATOMIC POINT CHARGES.
 https://doi.org/10.1063/1.470314

 BECKE, AD. PHYSICAL REVIEW A, 38 (6), 3098-3100 (1988). 
 DENSITY-FUNCTIONAL EXCHANGE-ENERGY APPROXIMATION WITH CORRECT
 ASYMPTOTIC-BEHAVIOR.
 https://doi.org/10.1103/PhysRevA.38.3098

 LEE, CT; YANG, WT; PARR, RG. 
 PHYSICAL REVIEW B, 37 (2), 785-789 (1988). 
 DEVELOPMENT OF THE COLLE-SALVETTI CORRELATION-ENERGY FORMULA INTO A
 FUNCTIONAL OF THE ELECTRON-DENSITY.
 https://doi.org/10.1103/PhysRevB.37.785


 -------------------------------------------------------------------------------
 -                                                                             -
 -                                T I M I N G                                  -
 -                                                                             -
 -------------------------------------------------------------------------------
 SUBROUTINE                       CALLS  ASD         SELF TIME        TOTAL TIME
                                MAXIMUM       AVERAGE  MAXIMUM  AVERAGE  MAXIMUM
 CP2K                                 1  1.0    0.267    0.274  578.811  578.813
 qs_mol_dyn_low                       1  2.0    0.009    0.009  500.876  502.630
 velocity_verlet                      1  3.0    0.007    0.007  357.697  357.746
 qs_forces                            2  3.5    0.001    0.001  288.886  288.888
 qs_energies                          2  4.5    0.000    0.000  275.257  275.259
 scf_env_do_scf                       2  5.5    0.000    0.000  264.252  264.252
 scf_env_do_scf_inner_loop           37  6.9    0.001    0.003  251.930  251.941
 rebuild_ks_matrix                   39  8.7    0.000    0.000  155.637  155.683
 qs_ks_build_kohn_sham_matrix        39  9.7    0.006    0.006  155.637  155.683
 qs_ks_update_qs_env                 39  7.9    0.000    0.000  144.869  144.912
 qs_rho_update_rho                   39  7.9    0.000    0.000  116.277  116.285
 calculate_rho_elec                  39  8.9    0.375    0.389  116.276  116.285
 qmmm_forces                          2  3.5    0.008    0.009  106.416  106.417
 qmmm_forces_with_gaussian            2  4.5    0.022    0.024   85.061  106.019
 qmmm_force_with_gaussian_low         2  5.5    0.000    0.000   84.052  105.010
 grid_collocate_task_list            39  9.9   69.597  100.675   69.597  100.675
 qmmm_el_coupling                     2  3.5    0.000    0.000   97.758   97.763
 qmmm_elec_with_gaussian              2  4.5    0.010    0.011   97.753   97.759
 qmmm_elec_with_gaussian_low          2  5.5    0.000    0.000   87.981   96.966
 sum_up_and_integrate                39 10.7    0.191    0.203   83.411   83.445
 integrate_v_rspace                  39 11.7    0.001    0.001   83.220   83.263
 qmmm_forces_gaussian_low_R           2  6.5    0.000    0.000   60.712   77.047
 qmmm_forces_with_gaussian_LG         2  7.5   60.712   77.047   60.712   77.047
 qmmm_env_create                      1  2.0   11.520   12.001   75.870   75.878
 grid_integrate_task_list            39 12.7   50.207   73.710   50.207   73.710
 pw_transfer                        802 12.4    0.075    0.082   68.681   69.643
 fft_wrap_pw1pw2                    675 13.4    0.011    0.012   67.585   68.557
 fft_wrap_pw1pw2_150                433 14.6    4.782    5.013   66.377   67.569
 fist_init                            1  3.0    0.000    0.000   59.655   59.655
 density_rs2pw                       39  9.9    0.002    0.003   46.091   59.144
 qs_vxc_create                       39 10.7    0.001    0.001   53.257   53.261
 xc_vxc_pw_create                    39 11.7    0.867    1.020   53.256   53.260
 fft3d_ps                           675 15.4   36.974   37.835   51.630   52.904
 qmmm_elec_gaussian_low_R             2  6.5    0.000    0.000   41.089   51.921
 qmmm_elec_with_gaussian_LG           2  7.5   41.089   51.921   41.089   51.921
 rs_pw_transfer                     324 12.1    0.005    0.006   36.613   49.660
 qmmm_elec_gaussian_low_G             2  6.5   46.892   48.373   46.892   48.373
 mp_waitany                        2688 13.9   32.827   45.937   32.827   45.937
 rs_pw_transfer_RS2PW_150            41 11.8    0.698    0.814   32.478   45.396
 force_field_control                  1  4.0    0.000    0.000   37.227   37.382
 rdparm_amber_8                       2  6.5   27.157   29.327   33.394   33.486
 mp_alltoall_d11v                   557 13.7   23.678   33.464   23.678   33.464
 rs_gather_matrices                  39 12.7    0.058    0.064   23.608   33.391
 qmmm_forces_gaussian_low_G           2  6.5   23.340   27.963   23.340   27.963
 xc_rho_set_and_dset_create          39 12.7    1.652    1.703   27.592   27.913
 mp_sum_dm                          258  4.8   21.671   23.891   21.671   23.891
 topology_control                     1  4.0    0.000    0.000   22.314   22.767
 force_field_pack                     1  5.0    0.016    0.017   19.888   19.983
 read_force_field_amber               1  5.0    0.006    0.006   17.254   17.337
 connectivity_control                 2  4.0    0.000    0.000   17.112   17.133
 read_connectivity_amber              1  6.0    0.000    0.000   16.145   16.154
 qs_ks_ddapc                         39 10.7    0.001    0.001   13.756   13.855
 init_scf_loop                        2  6.5    0.000    0.000   12.309   12.309
 force_field_pack_ub                  1  6.0   11.570   11.595   11.570   11.595
 -------------------------------------------------------------------------------

 The number of warnings for this run is : 1
 
 -------------------------------------------------------------------------------
  **** **** ******  **  PROGRAM ENDED AT                 2021-04-09 12:40:52.553
 ***** ** ***  *** **   PROGRAM RAN ON                                   r1i6n16
 **    ****   ******    PROGRAM RAN BY                                    hollyj
 ***** **    ** ** **   PROGRAM PROCESS ID                                 26785
  **** **  *******  **  PROGRAM STOPPED IN /lustre/home/w68/hollyj/CP2K/Cirrus/C
                                           PU/cp2kMD/ClC-253-BLYP/1STEPS/1NODES/
                                           36CPN/3THREADS
