 DBCSR| CPU Multiplication driver                                           XSMM
 DBCSR| Multrec recursion limit                                              512
 DBCSR| Multiplication stack size                                           1000
 DBCSR| Maximum elements for images                                    UNLIMITED
 DBCSR| Multiplicative factor virtual images                                   1
 DBCSR| Use multiplication densification                                       T
 DBCSR| Multiplication size stacks                                             3
 DBCSR| Use memory pool for CPU allocation                                     F
 DBCSR| Number of 3D layers                                               SINGLE
 DBCSR| Use MPI memory allocation                                              F
 DBCSR| Use RMA algorithm                                                      F
 DBCSR| Use Communication thread                                               T
 DBCSR| Communication thread load                                             83
 DBCSR| MPI: My node id                                                        0
 DBCSR| MPI: Number of nodes                                                  72
 DBCSR| OMP: Current number of threads                                         2
 DBCSR| OMP: Max number of threads                                             2
 DBCSR| Split modifier for TAS multiplication algorithm                  1.0E+00


  **** **** ******  **  PROGRAM STARTED AT               2021-02-26 12:11:59.788
 ***** ** ***  *** **   PROGRAM STARTED ON                                r1i6n3
 **    ****   ******    PROGRAM STARTED BY                                hollyj
 ***** **    ** ** **   PROGRAM PROCESS ID                                 38745
  **** **  *******  **  PROGRAM STARTED IN /lustre/home/w68/hollyj/CP2K/Cirrus/C
                                           PU/cp2kMD/CBD_PHY/6STEPS/4NODES/36CPN
                                           /2THREADS

 CP2K| version string:                                          CP2K version 8.1
 CP2K| source code revision number:                                  git:0b61f2f
 CP2K| cp2kflags: omp libint fftw3 libxc elpa parallel mpi3 scalapack xsmm spgli
 CP2K|            b mkl
 CP2K| is freely available from                            https://www.cp2k.org/
 CP2K| Program compiled at                           Mon Feb 1 13:14:42 GMT 2021
 CP2K| Program compiled on                                         cirrus-login1
 CP2K| Program compiled for                                           Cirrus-gcc
 CP2K| Data directory path       /lustre/home/w68/hollyj/CP2K/v8.1/cp2k-8.1/data
 CP2K| Input file name                                          CBD_PHY-cp2k.inp

 GLOBAL| Force Environment number                                              1
 GLOBAL| Basis set file name                                        BASIS_MOLOPT
 GLOBAL| Potential file name                                           POTENTIAL
 GLOBAL| MM Potential file name                                     MM_POTENTIAL
 GLOBAL| Coordinate file name                                        CBD_PHY.pdb
 GLOBAL| Method name                                                        CP2K
 GLOBAL| Project name                                                CBD_PHY-PBE
 GLOBAL| Preferred FFT library                                             FFTW3
 GLOBAL| Preferred diagonalization lib.                                     ELPA
 GLOBAL| Run type                                                             MD
 GLOBAL| All-to-all communication in single precision                          F
 GLOBAL| FFTs using library dependent lengths                                  F
 GLOBAL| Global print level                                                  LOW
 GLOBAL| MPI I/O enabled                                                       T
 GLOBAL| Total number of message passing processes                            72
 GLOBAL| Number of threads for this process                                    2
 GLOBAL| This output is from process                                           0
 GLOBAL| CPU model name                Intel(R) Xeon(R) CPU E5-2695 v4 @ 2.10GHz
 GLOBAL| CPUID                                                              1002
 GLOBAL| Compiled for CPUID                                                 1001

 *** HINT in environment.F:802 :: The compiler target flags (x86_avx) used ***
 *** to build this binary cannot exploit all extensions of this CPU model  ***
 *** (x86_avx2). Consider compiler target flags as part of FCFLAGS and     ***
 *** CFLAGS (ARCH file).                                                   ***


 MEMORY| system memory details [Kb]
 MEMORY|                        rank 0           min           max       average
 MEMORY| MemTotal            263692180     263692180     263692180     263692180
 MEMORY| MemFree             259059128     259059108     259136016     259109608
 MEMORY| Buffers                     0             0             0             0
 MEMORY| Cached                 921284        892892        930108        915479
 MEMORY| Slab                   911276        853764        911276        883061
 MEMORY| SReclaimable           229288        218048        229288        222705
 MEMORY| MemLikelyFree       260209700     260209676     260284172     260247792



                      ************* ******** ***********   
                     ************* **********************  
                     ****     **** ****      ***********   
                     ******** ****  *******     ****       
                     *******  ****   *******   ****        
                     ****     ****       ****  ****        
                     ****     **** **********  ****        
                      ****     **** ********    ****       
                     FRONTIERS IN SIMULATION TECHNOLOGY    
                                                           
                        C.J. Mundy, S. Balasubramanian,    
                     Ken Bagchi, J. Hutter, Ari Seitsonen  
                      IFW Kuo, T. Laino, J. VandeVondele   
                                 Version 1.0               

                                                           


 EWALD| Summation is done by:                                               SPME
 EWALD| Alpha parameter [       ANGSTROM^-1]                              0.4000
 EWALD| Real Space Cutoff [          ANGSTROM]                            8.4348
 EWALD| G-space max. Miller index                         80        80        80
 EWALD| Spline interpolation order                                             6

 FORCEFIELD| WARNING: A non Critical ForceField parameter is missing! CP2K GOES!
 FORCEFIELD| Non critical parameters are:Urey-Bradley,Torsions,Impropers, Opbends and 1-4
 FORCEFIELD| All missing parameters will not contribute to the potential energy!
 FORCEFIELD| Activate the print key FF_INFO to have a list of missing parameters

 CHARGE_INFO| Total Charge of the Classical System:                    -0.825808

 SPLINE_INFO| Generating 101926 splines for NONBONDED14 interactions 
              Due to 451 different atomic kinds
  ...10192  ...20384  ...30576  ...40768  ...50960  ...61152  ...71344  ...81536  ...91728  ...101920
 SPLINE_INFO| Number of unique splines computed:            301
 SPLINE_INFO| Done

 SPLINE_INFO| Generating 101926 splines for NONBONDED interactions 
              Due to 451 different atomic kinds
  ...10192  ...20384  ...30576  ...40768  ...50960  ...61152  ...71344  ...81536  ...91728  ...101920
 SPLINE_INFO| Number of unique splines computed:            301
 SPLINE_INFO| Done

 *******************************************************************************
 *******************************************************************************
 **                                                                           **
 **     #####                         ##              ##                      **
 **    ##   ##            ##          ##              ##                      **
 **   ##     ##                       ##            ######                    **
 **   ##     ##  ##   ##  ##   #####  ##  ##   ####   ##    #####    #####    **
 **   ##     ##  ##   ##  ##  ##      ## ##   ##      ##   ##   ##  ##   ##   **
 **   ##  ## ##  ##   ##  ##  ##      ####     ###    ##   ######   ######    **
 **    ##  ###   ##   ##  ##  ##      ## ##      ##   ##   ##       ##        **
 **     #######   #####   ##   #####  ##  ##  ####    ##    #####   ##        **
 **           ##                                                    ##        **
 **                                                                           **
 **                                                ... make the atoms dance   **
 **                                                                           **
 **            Copyright (C) by CP2K developers group (2000 - 2020)           **
 **                      J. Chem. Phys. 152, 194103 (2020)                    **
 **                                                                           **
 *******************************************************************************


 TOTAL NUMBERS AND MAXIMUM NUMBERS

  Total number of            - Atomic kinds:                                   5
                             - Atoms:                                         68
                             - Shell sets:                                    68
                             - Shells:                                       274
                             - Primitive Cartesian functions:                476
                             - Cartesian basis functions:                    655
                             - Spherical basis functions:                    620

  Maximum angular momentum of- Orbital basis functions:                        2
                             - Local part of the GTH pseudopotential:          2
                             - Non-local part of the GTH pseudopotential:      0


 SCF PARAMETERS         Density guess:                                   RESTART
                        --------------------------------------------------------
                        max_scf:                                             300
                        max_scf_history:                                       0
                        max_diis:                                              4
                        --------------------------------------------------------
                        eps_scf:                                        1.00E-06
                        eps_scf_history:                                0.00E+00
                        eps_diis:                                       1.00E-01
                        eps_eigval:                                     1.00E-05
                        --------------------------------------------------------
                        level_shift [a.u.]:                                 0.00
                        --------------------------------------------------------
                        No outer SCF

 *******************************************************************************
 *******************************************************************************
 **                                                                           **
 **             #######  ##     ## ##     ## ##     ##                        **
 **            ##     ## ###   ### ###   ### ###   ###                        **
 **            ##     ## #### #### #### #### #### ####                        **
 **            ##     ## ## ### ## ## ### ## ## ### ##                        **
 **            ##  ## ## ##     ## ##     ## ##     ##                        **
 **            ##    ##  ##     ## ##     ## ##     ##  T.Laino and F.Mohamed **
 **             ##### ## ##     ## ##     ## ##     ##  2005 - 2015           **
 **                                                                           **
 **                                                     Calculation Started.. **
 *******************************************************************************
 *******************************************************************************

 MD_PAR| Molecular dynamics protocol (MD input parameters)
 MD_PAR| Ensemble type                                                       NVE
 MD_PAR| Number of time steps                                                  6
 MD_PAR| Time step [fs]                                                 1.000000
 MD_PAR| Temperature [K]                                              300.000000
 MD_PAR| Temperature tolerance [K]                                      0.000000
 MD_PAR| Print MD information every                                    1 step(s)
 MD_PAR| File type   Print frequency [steps]                          File names
 MD_PAR| Coordinates          1                                CBD_PHY-pos-1.xyz
 MD_PAR| Velocities           1                                CBD_PHY-vel-1.xyz
 MD_PAR| Energies             1                                   CBD_PHY-1.ener
 MD_PAR| Dump                20                                CBD_PHY-1.restart

 ROT| Rotational analysis information
 ROT| Principal axes and moments of inertia [a.u.]
 ROT|                           1                   2                   3
 ROT| Eigenvalues      1.56283164001E+13   1.56407408488E+13   1.56663418804E+13
 ROT|      x              0.901637047331     -0.018153263569      0.432112362589
 ROT|      y              0.323714777231      0.690893927917     -0.646431994389
 ROT|      z             -0.286808957117      0.722728191915      0.628812040859
 ROT| Number of rotovibrational vectors                                        6

 DOF| Calculation of degrees of freedom
 DOF| Number of atoms                                                     167923
 DOF| Number of intramolecular constraints                                     0
 DOF| Number of intermolecular constraints                                     0
 DOF| Invariants (translations + rotations)                                    3
 DOF| Degrees of freedom                                                  503766

 DOF| Restraints information
 DOF| Number of intramolecular restraints                                      0
 DOF| Number of intermolecular restraints                                      0

 MD_VEL| Velocities initialization
 MD_VEL| Initial temperature [K]                                      300.000000
 MD_VEL| COM velocity            -0.0000000000     0.0000000000     0.0000000000

  Translating the system in order to center the QM fragment in the QM box.

 Number of electrons:                                                        180
 Number of occupied orbitals:                                                 90
 Number of molecular orbitals:                                                90

 Number of orbital functions:                                                620
 Number of independent orbital functions:                                    620

 Extrapolation method: initial_guess


 SCF WAVEFUNCTION OPTIMIZATION

  ----------------------------------- OT ---------------------------------------
  Minimizer      : DIIS                : direct inversion
                                         in the iterative subspace
                                         using   7 DIIS vectors
                                         safer DIIS on
  Preconditioner : FULL_ALL            : diagonalization, state selective
  Precond_solver : DEFAULT
  stepsize       :    0.15000000                  energy_gap     :    0.08000000
  eps_taylor     :   0.10000E-15                  max_taylor     :             4
  ----------------------------------- OT ---------------------------------------

  Step     Update method      Time    Convergence         Total energy    Change
  ------------------------------------------------------------------------------
  Decoupling Energy:                                               0.0370860464
  Recoupling Energy:                                              -0.0063743249
     1 OT DIIS     0.15E+00    1.4     0.00000956      -256.0303948150 -2.56E+02
  Decoupling Energy:                                               0.0370861672
  Recoupling Energy:                                              -0.0063743255
     2 OT DIIS     0.15E+00    1.8     0.00000478      -256.0303953084 -4.93E-07
  Decoupling Energy:                                               0.0370856321
  Recoupling Energy:                                              -0.0063743196
     3 OT DIIS     0.15E+00    1.7     0.00000528      -256.0303953641 -5.57E-08
  Decoupling Energy:                                               0.0370861329
  Recoupling Energy:                                              -0.0063743252
     4 OT DIIS     0.15E+00    1.7     0.00000149      -256.0303954148 -5.07E-08
  Decoupling Energy:                                               0.0370859327
  Recoupling Energy:                                              -0.0063743228
     5 OT DIIS     0.15E+00    1.7     0.00000020      -256.0303954185 -3.64E-09

  *** SCF run converged in     5 steps ***


  Electronic density on regular grids:       -179.9999999994        0.0000000006
  Core density on regular grids:              180.9999999999       -0.0000000001
  Total charge density on r-space grids:        1.0000000005
  Total charge density g-space grids:           1.0000000005

  Overlap energy of the core charge distribution:               0.00001951532734
  Self energy of the core charge distribution:               -615.71576003586028
  Core Hamiltonian energy:                                    191.69815017914775
  Hartree energy:                                             247.57404818333117
  Exchange-correlation energy:                                -79.63275540309799
  QM/MM Electrostatic energy:                                   0.04590214266542

  Total energy:                                              -256.03039541848653
  Decoupling Energy:                                               0.0370859742
  Recoupling Energy:                                              -0.0063743233

 ENERGY| Total FORCE_EVAL ( QMMM ) energy [a.u.]:          -1088.195362349136531

 MD_INI| MD initialization
 MD_INI| Potential energy [hartree]                          -0.108819536235E+04
 MD_INI| Total kinetic energy [hartree]                       0.239300084734E+03
 MD_INI| QM kinetic energy [hartree]                          0.106639360339E+00
 MD_INI| Total temperature [K]                                        300.000000
 MD_INI| QM temperature [K]                                           330.137318
 MD_INI| Cell volume [bohr^3]                                 1.137316355424E+07
 MD_INI| Cell volume [ang^3]                                  1.685328937712E+06
 MD_INI| Cell lengths [bohr]      2.24884969E+02  2.24884969E+02  2.24884969E+02
 MD_INI| Cell lengths [ang]       1.19004000E+02  1.19004000E+02  1.19004000E+02
 MD_INI| Cell angles [deg]        9.00000000E+01  9.00000000E+01  9.00000000E+01

  Translating the system in order to center the QM fragment in the QM box.

 Number of electrons:                                                        180
 Number of occupied orbitals:                                                 90
 Number of molecular orbitals:                                                90

 Number of orbital functions:                                                620
 Number of independent orbital functions:                                    620

 Extrapolation method: ASPC


 SCF WAVEFUNCTION OPTIMIZATION

  ----------------------------------- OT ---------------------------------------
  Minimizer      : DIIS                : direct inversion
                                         in the iterative subspace
                                         using   7 DIIS vectors
                                         safer DIIS on
  Preconditioner : FULL_ALL            : diagonalization, state selective
  Precond_solver : DEFAULT
  stepsize       :    0.15000000                  energy_gap     :    0.08000000
  eps_taylor     :   0.10000E-15                  max_taylor     :             4
  ----------------------------------- OT ---------------------------------------

  Step     Update method      Time    Convergence         Total energy    Change
  ------------------------------------------------------------------------------
  Decoupling Energy:                                               0.0371104022
  Recoupling Energy:                                              -0.0063745549
     1 OT DIIS     0.15E+00    1.2     0.00092537      -255.8029313664 -2.56E+02
  Decoupling Energy:                                               0.0371210912
  Recoupling Energy:                                              -0.0063746935
     2 OT DIIS     0.15E+00    1.7     0.00041587      -255.8072240309 -4.29E-03
  Decoupling Energy:                                               0.0371277539
  Recoupling Energy:                                              -0.0063747955
     3 OT DIIS     0.15E+00    1.7     0.00037228      -255.8077199026 -4.96E-04
  Decoupling Energy:                                               0.0371212858
  Recoupling Energy:                                              -0.0063746999
     4 OT DIIS     0.15E+00    1.7     0.00014957      -255.8079919835 -2.72E-04
  Decoupling Energy:                                               0.0371369486
  Recoupling Energy:                                              -0.0063748859
     5 OT DIIS     0.15E+00    1.7     0.00004923      -255.8080296610 -3.77E-05
  Decoupling Energy:                                               0.0371276795
  Recoupling Energy:                                              -0.0063747811
     6 OT DIIS     0.15E+00    1.7     0.00001779      -255.8080336536 -3.99E-06
  Decoupling Energy:                                               0.0371313106
  Recoupling Energy:                                              -0.0063748226
     7 OT DIIS     0.15E+00    1.7     0.00000735      -255.8080342019 -5.48E-07
  Decoupling Energy:                                               0.0371301428
  Recoupling Energy:                                              -0.0063748095
     8 OT DIIS     0.15E+00    1.7     0.00000183      -255.8080343031 -1.01E-07
  Decoupling Energy:                                               0.0371306206
  Recoupling Energy:                                              -0.0063748146
     9 OT DIIS     0.15E+00    1.7     0.00000127      -255.8080343089 -5.76E-09
  Decoupling Energy:                                               0.0371304192
  Recoupling Energy:                                              -0.0063748126
    10 OT DIIS     0.15E+00    1.7     0.00000040      -255.8080343116 -2.80E-09

  *** SCF run converged in    10 steps ***


  Electronic density on regular grids:       -180.0000000001       -0.0000000001
  Core density on regular grids:              180.9999999999       -0.0000000001
  Total charge density on r-space grids:        0.9999999998
  Total charge density g-space grids:           0.9999999998

  Overlap energy of the core charge distribution:               0.00002367605264
  Self energy of the core charge distribution:               -615.71576003586028
  Core Hamiltonian energy:                                    191.83715151666442
  Hartree energy:                                             247.48551244244484
  Exchange-correlation energy:                                -79.67126388748639
  QM/MM Electrostatic energy:                                   0.25630197653735

  Total energy:                                              -255.80803431164745
  Decoupling Energy:                                               0.0371304353
  Recoupling Energy:                                              -0.0063748127

 ENERGY| Total FORCE_EVAL ( QMMM ) energy [a.u.]:          -1060.045711407023646

 MD| ***************************************************************************
 MD| Step number                                                               1
 MD| Time [fs]                                                          1.000000
 MD| Conserved quantity [hartree]                            -0.841545612460E+03
 MD| ---------------------------------------------------------------------------
 MD|                                          Instantaneous             Averages
 MD| CPU time per MD step [s]                    102.525515           102.525515
 MD| Energy drift per atom [K]           0.138208460223E+02   0.000000000000E+00
 MD| Potential energy [hartree]         -0.106004571141E+04  -0.106004571141E+04
 MD| Total kinetic energy [hartree]      0.218500098947E+03   0.218500098947E+03
 MD| QM kinetic energy [hartree]         0.120537396472E+00   0.120537396472E+00
 MD| Total temperature [K]                       273.923972           273.923972
 MD| QM temperature [K]                          373.163274           373.163274
 MD| ***************************************************************************

  Translating the system in order to center the QM fragment in the QM box.

 Number of electrons:                                                        180
 Number of occupied orbitals:                                                 90
 Number of molecular orbitals:                                                90

 Number of orbital functions:                                                620
 Number of independent orbital functions:                                    620

 Extrapolation method: ASPC


 SCF WAVEFUNCTION OPTIMIZATION

  ----------------------------------- OT ---------------------------------------
  Minimizer      : DIIS                : direct inversion
                                         in the iterative subspace
                                         using   7 DIIS vectors
                                         safer DIIS on
  Preconditioner : FULL_ALL            : diagonalization, state selective
  Precond_solver : DEFAULT
  stepsize       :    0.15000000                  energy_gap     :    0.08000000
  eps_taylor     :   0.10000E-15                  max_taylor     :             4
  ----------------------------------- OT ---------------------------------------

  Step     Update method      Time    Convergence         Total energy    Change
  ------------------------------------------------------------------------------
  Decoupling Energy:                                               0.0371782653
  Recoupling Energy:                                              -0.0063753295
     1 OT DIIS     0.15E+00    1.2     0.00034569      -255.4446723116 -2.55E+02
  Decoupling Energy:                                               0.0371762828
  Recoupling Energy:                                              -0.0063753051
     2 OT DIIS     0.15E+00    1.7     0.00014529      -255.4452859433 -6.14E-04
  Decoupling Energy:                                               0.0371731713
  Recoupling Energy:                                              -0.0063752667
     3 OT DIIS     0.15E+00    1.7     0.00012811      -255.4453579843 -7.20E-05
  Decoupling Energy:                                               0.0371770302
  Recoupling Energy:                                              -0.0063753178
     4 OT DIIS     0.15E+00    1.7     0.00005544      -255.4453891742 -3.12E-05
  Decoupling Energy:                                               0.0371727803
  Recoupling Energy:                                              -0.0063752653
     5 OT DIIS     0.15E+00    1.7     0.00001634      -255.4453943042 -5.13E-06
  Decoupling Energy:                                               0.0371753987
  Recoupling Energy:                                              -0.0063752960
     6 OT DIIS     0.15E+00    1.7     0.00000629      -255.4453947541 -4.50E-07
  Decoupling Energy:                                               0.0371743569
  Recoupling Energy:                                              -0.0063752840
     7 OT DIIS     0.15E+00    1.7     0.00000206      -255.4453948288 -7.47E-08
  Decoupling Energy:                                               0.0371747656
  Recoupling Energy:                                              -0.0063752885
     8 OT DIIS     0.15E+00    1.7     0.00000090      -255.4453948359 -7.18E-09

  *** SCF run converged in     8 steps ***


  Electronic density on regular grids:       -180.0000000008       -0.0000000008
  Core density on regular grids:              180.9999999999       -0.0000000001
  Total charge density on r-space grids:        0.9999999991
  Total charge density g-space grids:           0.9999999991

  Overlap energy of the core charge distribution:               0.00004639440475
  Self energy of the core charge distribution:               -615.71576003586028
  Core Hamiltonian energy:                                    191.92051753741487
  Hartree energy:                                             247.45180560941964
  Exchange-correlation energy:                                -79.68728052000267
  QM/MM Electrostatic energy:                                   0.58527617868083

  Total energy:                                              -255.44539483594286
  Decoupling Energy:                                               0.0371745951
  Recoupling Energy:                                              -0.0063752867

 ENERGY| Total FORCE_EVAL ( QMMM ) energy [a.u.]:          -1061.319246075939645

 MD| ***************************************************************************
 MD| Step number                                                               2
 MD| Time [fs]                                                          2.000000
 MD| Conserved quantity [hartree]                            -0.842902035497E+03
 MD| ---------------------------------------------------------------------------
 MD|                                          Instantaneous             Averages
 MD| CPU time per MD step [s]                     51.515930            77.020722
 MD| Energy drift per atom [K]           0.112701292826E+02   0.563506464132E+01
 MD| Potential energy [hartree]         -0.106131924608E+04  -0.106068247874E+04
 MD| Total kinetic energy [hartree]      0.218417210578E+03   0.218458654763E+03
 MD| QM kinetic energy [hartree]         0.111218644654E+00   0.115878020563E+00
 MD| Total temperature [K]                       273.820058           273.872015
 MD| QM temperature [K]                          344.314003           358.738639
 MD| ***************************************************************************

  Translating the system in order to center the QM fragment in the QM box.

 Number of electrons:                                                        180
 Number of occupied orbitals:                                                 90
 Number of molecular orbitals:                                                90

 Number of orbital functions:                                                620
 Number of independent orbital functions:                                    620

 Extrapolation method: ASPC


 SCF WAVEFUNCTION OPTIMIZATION

  ----------------------------------- OT ---------------------------------------
  Minimizer      : DIIS                : direct inversion
                                         in the iterative subspace
                                         using   7 DIIS vectors
                                         safer DIIS on
  Preconditioner : FULL_ALL            : diagonalization, state selective
  Precond_solver : DEFAULT
  stepsize       :    0.15000000                  energy_gap     :    0.08000000
  eps_taylor     :   0.10000E-15                  max_taylor     :             4
  ----------------------------------- OT ---------------------------------------

  Step     Update method      Time    Convergence         Total energy    Change
  ------------------------------------------------------------------------------
  Decoupling Energy:                                               0.0372093684
  Recoupling Energy:                                              -0.0063756581
     1 OT DIIS     0.15E+00    1.2     0.00068288      -254.9647888815 -2.55E+02
  Decoupling Energy:                                               0.0372203242
  Recoupling Energy:                                              -0.0063757651
     2 OT DIIS     0.15E+00    1.8     0.00025903      -254.9670248431 -2.24E-03
  Decoupling Energy:                                               0.0372193629
  Recoupling Energy:                                              -0.0063757535
     3 OT DIIS     0.15E+00    1.8     0.00015274      -254.9672853926 -2.61E-04
  Decoupling Energy:                                               0.0372147281
  Recoupling Energy:                                              -0.0063757082
     4 OT DIIS     0.15E+00    1.8     0.00007835      -254.9673487107 -6.33E-05
  Decoupling Energy:                                               0.0372155260
  Recoupling Energy:                                              -0.0063757148
     5 OT DIIS     0.15E+00    1.7     0.00002591      -254.9673601286 -1.14E-05
  Decoupling Energy:                                               0.0372158099
  Recoupling Energy:                                              -0.0063757173
     6 OT DIIS     0.15E+00    1.7     0.00001297      -254.9673612391 -1.11E-06
  Decoupling Energy:                                               0.0372161515
  Recoupling Energy:                                              -0.0063757209
     7 OT DIIS     0.15E+00    1.8     0.00000392      -254.9673615382 -2.99E-07
  Decoupling Energy:                                               0.0372156716
  Recoupling Energy:                                              -0.0063757160
     8 OT DIIS     0.15E+00    1.7     0.00000141      -254.9673615647 -2.64E-08
  Decoupling Energy:                                               0.0372158578
  Recoupling Energy:                                              -0.0063757180
     9 OT DIIS     0.15E+00    1.7     0.00000048      -254.9673615688 -4.19E-09

  *** SCF run converged in     9 steps ***


  Electronic density on regular grids:       -180.0000000026       -0.0000000026
  Core density on regular grids:              180.9999999999       -0.0000000001
  Total charge density on r-space grids:        0.9999999973
  Total charge density g-space grids:           0.9999999973

  Overlap energy of the core charge distribution:               0.00004419926693
  Self energy of the core charge distribution:               -615.71576003586028
  Core Hamiltonian energy:                                    191.78835506223760
  Hartree energy:                                             247.54137731527715
  Exchange-correlation energy:                                -79.64149442144202
  QM/MM Electrostatic energy:                                   1.06011631167247

  Total energy:                                              -254.96736156884819
  Decoupling Energy:                                               0.0372157865
  Recoupling Energy:                                              -0.0063757172

 ENERGY| Total FORCE_EVAL ( QMMM ) energy [a.u.]:          -1082.129011338306555

 MD| ***************************************************************************
 MD| Step number                                                               3
 MD| Time [fs]                                                          3.000000
 MD| Conserved quantity [hartree]                            -0.846476809072E+03
 MD| ---------------------------------------------------------------------------
 MD|                                          Instantaneous             Averages
 MD| CPU time per MD step [s]                     53.753909            69.265118
 MD| Energy drift per atom [K]           0.454786451360E+01   0.527266459875E+01
 MD| Potential energy [hartree]         -0.108212901134E+04  -0.106783132294E+04
 MD| Total kinetic energy [hartree]      0.235652202266E+03   0.224189837264E+03
 MD| QM kinetic energy [hartree]         0.116444681526E+00   0.116066907551E+00
 MD| Total temperature [K]                       295.426810           281.056947
 MD| QM temperature [K]                          360.492925           359.323401
 MD| ***************************************************************************

  Translating the system in order to center the QM fragment in the QM box.

 Number of electrons:                                                        180
 Number of occupied orbitals:                                                 90
 Number of molecular orbitals:                                                90

 Number of orbital functions:                                                620
 Number of independent orbital functions:                                    620

 Extrapolation method: ASPC


 SCF WAVEFUNCTION OPTIMIZATION

  ----------------------------------- OT ---------------------------------------
  Minimizer      : DIIS                : direct inversion
                                         in the iterative subspace
                                         using   7 DIIS vectors
                                         safer DIIS on
  Preconditioner : FULL_ALL            : diagonalization, state selective
  Precond_solver : DEFAULT
  stepsize       :    0.15000000                  energy_gap     :    0.08000000
  eps_taylor     :   0.10000E-15                  max_taylor     :             4
  ----------------------------------- OT ---------------------------------------

  Step     Update method      Time    Convergence         Total energy    Change
  ------------------------------------------------------------------------------
  Decoupling Energy:                                               0.0372540981
  Recoupling Energy:                                              -0.0063761081
     1 OT DIIS     0.15E+00    1.2     0.00024459      -254.4113405130 -2.54E+02
  Decoupling Energy:                                               0.0372507589
  Recoupling Energy:                                              -0.0063760834
     2 OT DIIS     0.15E+00    1.7     0.00009754      -254.4116522397 -3.12E-04
  Decoupling Energy:                                               0.0372523114
  Recoupling Energy:                                              -0.0063760938
     3 OT DIIS     0.15E+00    1.7     0.00006294      -254.4116943855 -4.21E-05
  Decoupling Energy:                                               0.0372487207
  Recoupling Energy:                                              -0.0063760616
     4 OT DIIS     0.15E+00    1.7     0.00002078      -254.4117050361 -1.07E-05
  Decoupling Energy:                                               0.0372498216
  Recoupling Energy:                                              -0.0063760714
     5 OT DIIS     0.15E+00    1.7     0.00000699      -254.4117059545 -9.18E-07
  Decoupling Energy:                                               0.0372497342
  Recoupling Energy:                                              -0.0063760707
     6 OT DIIS     0.15E+00    1.7     0.00000424      -254.4117060281 -7.37E-08
  Decoupling Energy:                                               0.0372496961
  Recoupling Energy:                                              -0.0063760701
     7 OT DIIS     0.15E+00    1.7     0.00000103      -254.4117060581 -3.00E-08
  Decoupling Energy:                                               0.0372497533
  Recoupling Energy:                                              -0.0063760708
     8 OT DIIS     0.15E+00    1.7     0.00000046      -254.4117060600 -1.87E-09

  *** SCF run converged in     8 steps ***


  Electronic density on regular grids:       -179.9999999994        0.0000000006
  Core density on regular grids:              180.9999999999       -0.0000000001
  Total charge density on r-space grids:        1.0000000005
  Total charge density g-space grids:           1.0000000005

  Overlap energy of the core charge distribution:               0.00001948738608
  Self energy of the core charge distribution:               -615.71576003586028
  Core Hamiltonian energy:                                    191.48986426778282
  Hartree energy:                                             247.72017574376272
  Exchange-correlation energy:                                -79.55045540065676
  QM/MM Electrostatic energy:                                   1.64444987758430

  Total energy:                                              -254.41170606000111
  Decoupling Energy:                                               0.0372497052
  Recoupling Energy:                                              -0.0063760703

 ENERGY| Total FORCE_EVAL ( QMMM ) energy [a.u.]:          -1079.794214261610023

 MD| ***************************************************************************
 MD| Step number                                                               4
 MD| Time [fs]                                                          4.000000
 MD| Conserved quantity [hartree]                            -0.842197688603E+03
 MD| ---------------------------------------------------------------------------
 MD|                                          Instantaneous             Averages
 MD| CPU time per MD step [s]                     51.570894            64.841562
 MD| Energy drift per atom [K]           0.125946345182E+02   0.710315707862E+01
 MD| Potential energy [hartree]         -0.107979421426E+04  -0.107082204577E+04
 MD| Total kinetic energy [hartree]      0.237596525659E+03   0.227541509363E+03
 MD| QM kinetic energy [hartree]         0.144133270866E+00   0.123083498380E+00
 MD| Total temperature [K]                       297.864323           285.258791
 MD| QM temperature [K]                          446.212087           381.045572
 MD| ***************************************************************************

  Translating the system in order to center the QM fragment in the QM box.

 Number of electrons:                                                        180
 Number of occupied orbitals:                                                 90
 Number of molecular orbitals:                                                90

 Number of orbital functions:                                                620
 Number of independent orbital functions:                                    620

 Extrapolation method: ASPC


 SCF WAVEFUNCTION OPTIMIZATION

  ----------------------------------- OT ---------------------------------------
  Minimizer      : DIIS                : direct inversion
                                         in the iterative subspace
                                         using   7 DIIS vectors
                                         safer DIIS on
  Preconditioner : FULL_ALL            : diagonalization, state selective
  Precond_solver : DEFAULT
  stepsize       :    0.15000000                  energy_gap     :    0.08000000
  eps_taylor     :   0.10000E-15                  max_taylor     :             4
  ----------------------------------- OT ---------------------------------------

  Step     Update method      Time    Convergence         Total energy    Change
  ------------------------------------------------------------------------------
  Decoupling Energy:                                               0.0372779316
  Recoupling Energy:                                              -0.0063763730
     1 OT DIIS     0.15E+00    1.2     0.00031457      -253.8151268581 -2.54E+02
  Decoupling Energy:                                               0.0372689413
  Recoupling Energy:                                              -0.0063762905
     2 OT DIIS     0.15E+00    1.7     0.00011950      -253.8156456177 -5.19E-04
  Decoupling Energy:                                               0.0372686083
  Recoupling Energy:                                              -0.0063762777
     3 OT DIIS     0.15E+00    1.7     0.00008760      -253.8157104640 -6.48E-05
  Decoupling Energy:                                               0.0372698989
  Recoupling Energy:                                              -0.0063762979
     4 OT DIIS     0.15E+00    1.7     0.00004076      -253.8157261383 -1.57E-05
  Decoupling Energy:                                               0.0372685497
  Recoupling Energy:                                              -0.0063762803
     5 OT DIIS     0.15E+00    1.7     0.00001308      -253.8157290686 -2.93E-06
  Decoupling Energy:                                               0.0372701700
  Recoupling Energy:                                              -0.0063762991
     6 OT DIIS     0.15E+00    1.7     0.00000663      -253.8157293286 -2.60E-07
  Decoupling Energy:                                               0.0372690168
  Recoupling Energy:                                              -0.0063762862
     7 OT DIIS     0.15E+00    1.7     0.00000161      -253.8157294006 -7.20E-08
  Decoupling Energy:                                               0.0372694544
  Recoupling Energy:                                              -0.0063762910
     8 OT DIIS     0.15E+00    1.7     0.00000063      -253.8157294053 -4.65E-09

  *** SCF run converged in     8 steps ***


  Electronic density on regular grids:       -180.0000000006       -0.0000000006
  Core density on regular grids:              180.9999999999       -0.0000000001
  Total charge density on r-space grids:        0.9999999993
  Total charge density g-space grids:           0.9999999993

  Overlap energy of the core charge distribution:               0.00001460848468
  Self energy of the core charge distribution:               -615.71576003586028
  Core Hamiltonian energy:                                    191.25359591174583
  Hartree energy:                                             247.87426405292510
  Exchange-correlation energy:                                -79.47483494602383
  QM/MM Electrostatic energy:                                   2.24699100344476

  Total energy:                                              -253.81572940528375
  Decoupling Energy:                                               0.0372693262
  Recoupling Energy:                                              -0.0063762896

 ENERGY| Total FORCE_EVAL ( QMMM ) energy [a.u.]:          -1094.385760858462845

 MD| ***************************************************************************
 MD| Step number                                                               5
 MD| Time [fs]                                                          5.000000
 MD| Conserved quantity [hartree]                            -0.848473425795E+03
 MD| ---------------------------------------------------------------------------
 MD|                                          Instantaneous             Averages
 MD| CPU time per MD step [s]                     51.796352            62.232520
 MD| Energy drift per atom [K]           0.793280909229E+00   0.584118184474E+01
 MD| Potential energy [hartree]         -0.109438576086E+04  -0.107553478879E+04
 MD| Total kinetic energy [hartree]      0.245912335064E+03   0.231215674503E+03
 MD| QM kinetic energy [hartree]         0.151887285074E+00   0.128844255719E+00
 MD| Total temperature [K]                       308.289488           289.864930
 MD| QM temperature [K]                          470.217196           398.879897
 MD| ***************************************************************************

  Translating the system in order to center the QM fragment in the QM box.

 Number of electrons:                                                        180
 Number of occupied orbitals:                                                 90
 Number of molecular orbitals:                                                90

 Number of orbital functions:                                                620
 Number of independent orbital functions:                                    620

 Extrapolation method: ASPC


 SCF WAVEFUNCTION OPTIMIZATION

  ----------------------------------- OT ---------------------------------------
  Minimizer      : DIIS                : direct inversion
                                         in the iterative subspace
                                         using   7 DIIS vectors
                                         safer DIIS on
  Preconditioner : FULL_ALL            : diagonalization, state selective
  Precond_solver : DEFAULT
  stepsize       :    0.15000000                  energy_gap     :    0.08000000
  eps_taylor     :   0.10000E-15                  max_taylor     :             4
  ----------------------------------- OT ---------------------------------------

  Step     Update method      Time    Convergence         Total energy    Change
  ------------------------------------------------------------------------------
  Decoupling Energy:                                               0.0372763728
  Recoupling Energy:                                              -0.0063764058
     1 OT DIIS     0.15E+00    1.2     0.00016794      -253.2647012088 -2.53E+02
  Decoupling Energy:                                               0.0372754173
  Recoupling Energy:                                              -0.0063763916
     2 OT DIIS     0.15E+00    1.7     0.00008151      -253.2648266611 -1.25E-04
  Decoupling Energy:                                               0.0372720775
  Recoupling Energy:                                              -0.0063763537
     3 OT DIIS     0.15E+00    1.7     0.00005932      -253.2648437335 -1.71E-05
  Decoupling Energy:                                               0.0372780959
  Recoupling Energy:                                              -0.0063764225
     4 OT DIIS     0.15E+00    1.7     0.00003331      -253.2648507010 -6.97E-06
  Decoupling Energy:                                               0.0372740410
  Recoupling Energy:                                              -0.0063763747
     5 OT DIIS     0.15E+00    1.7     0.00000856      -253.2648526862 -1.99E-06
  Decoupling Energy:                                               0.0372754817
  Recoupling Energy:                                              -0.0063763917
     6 OT DIIS     0.15E+00    1.7     0.00000426      -253.2648527996 -1.13E-07
  Decoupling Energy:                                               0.0372747314
  Recoupling Energy:                                              -0.0063763834
     7 OT DIIS     0.15E+00    1.7     0.00000106      -253.2648528317 -3.21E-08
  Decoupling Energy:                                               0.0372749185
  Recoupling Energy:                                              -0.0063763853
     8 OT DIIS     0.15E+00    1.7     0.00000034      -253.2648528341 -2.33E-09

  *** SCF run converged in     8 steps ***


  Electronic density on regular grids:       -180.0000000005       -0.0000000005
  Core density on regular grids:              180.9999999999       -0.0000000001
  Total charge density on r-space grids:        0.9999999994
  Total charge density g-space grids:           0.9999999994

  Overlap energy of the core charge distribution:               0.00001414076102
  Self energy of the core charge distribution:               -615.71576003586028
  Core Hamiltonian energy:                                    191.18628299625237
  Hartree energy:                                             247.93014666220694
  Exchange-correlation energy:                                -79.44845302061384
  QM/MM Electrostatic energy:                                   2.78291642317436

  Total energy:                                              -253.26485283407948
  Decoupling Energy:                                               0.0372748699
  Recoupling Energy:                                              -0.0063763848

 ENERGY| Total FORCE_EVAL ( QMMM ) energy [a.u.]:          -1057.420858992481044

 MD| ***************************************************************************
 MD| Step number                                                               6
 MD| Time [fs]                                                          6.000000
 MD| Conserved quantity [hartree]                            -0.842984613541E+03
 MD| ---------------------------------------------------------------------------
 MD|                                          Instantaneous             Averages
 MD| CPU time per MD step [s]                     51.169571            60.388695
 MD| Energy drift per atom [K]           0.111148435113E+02   0.672012545583E+01
 MD| Potential energy [hartree]         -0.105742085899E+04  -0.107251580049E+04
 MD| Total kinetic energy [hartree]      0.214436245452E+03   0.228419102994E+03
 MD| QM kinetic energy [hartree]         0.137235213718E+00   0.130242748719E+00
 MD| Total temperature [K]                       268.829297           286.358991
 MD| QM temperature [K]                          424.856875           403.209393
 MD| ***************************************************************************

 -------------------------------------------------------------------------------
 -                                                                             -
 -                                DBCSR STATISTICS                             -
 -                                                                             -
 -------------------------------------------------------------------------------
 COUNTER                                    TOTAL       BLAS       SMM       ACC
 flops     5 x    26 x    26              1561560       0.0%    100.0%      0.0%
 flops    13 x    26 x    26              4306120       0.0%    100.0%      0.0%
 flops     5 x    32 x    32              4730880       0.0%    100.0%      0.0%
 flops    26 x    26 x    26             10088624       0.0%    100.0%      0.0%
 flops    13 x    32 x    32             13045760       0.0%    100.0%      0.0%
 flops    46 x    26 x    46             13864032       0.0%    100.0%      0.0%
 flops    26 x    26 x    46             14366352       0.0%    100.0%      0.0%
 flops    54 x    26 x    46             16275168       0.0%    100.0%      0.0%
 flops    46 x    26 x    26             17413760       0.0%    100.0%      0.0%
 flops    59 x    26 x    46             17782128       0.0%    100.0%      0.0%
 flops    62 x    26 x    46             18686304       0.0%    100.0%      0.0%
 flops    54 x    26 x    26             20442240       0.0%    100.0%      0.0%
 flops    59 x    26 x    26             22335040       0.0%    100.0%      0.0%
 flops    62 x    26 x    26             23470720       0.0%    100.0%      0.0%
 flops    26 x    26 x    32             24833536       0.0%    100.0%      0.0%
 flops    26 x    32 x    26             24833536       0.0%    100.0%      0.0%
 flops    32 x    26 x    26             24833536       0.0%    100.0%      0.0%
 flops    36 x    26 x    46             32550336       0.0%    100.0%      0.0%
 flops    46 x    32 x    46             34126848       0.0%    100.0%      0.0%
 flops    26 x    32 x    46             35363328       0.0%    100.0%      0.0%
 flops    32 x    26 x    46             35363328       0.0%    100.0%      0.0%
 flops    54 x    32 x    46             40061952       0.0%    100.0%      0.0%
 flops    36 x    26 x    26             40884480       0.0%    100.0%      0.0%
 flops    46 x    26 x    32             42864640       0.0%    100.0%      0.0%
 flops    46 x    32 x    26             42864640       0.0%    100.0%      0.0%
 flops    72 x    26 x    46             43400448       0.0%    100.0%      0.0%
 flops    59 x    32 x    46             43771392       0.0%    100.0%      0.0%
 flops    49 x    26 x    46             44304624       0.0%    100.0%      0.0%
 flops    62 x    32 x    46             45997056       0.0%    100.0%      0.0%
 flops    54 x    26 x    32             50319360       0.0%    100.0%      0.0%
 flops    54 x    32 x    26             50319360       0.0%    100.0%      0.0%
 flops     5 x     5 x    26             51051000       0.0%    100.0%      0.0%
 flops    72 x    26 x    26             54512640       0.0%    100.0%      0.0%
 flops    59 x    26 x    32             54978560       0.0%    100.0%      0.0%
 flops    59 x    32 x    26             54978560       0.0%    100.0%      0.0%
 flops    49 x    26 x    26             55648320       0.0%    100.0%      0.0%
 flops    62 x    32 x    26             57774080       0.0%    100.0%      0.0%
 flops    62 x    26 x    32             57774080       0.0%    100.0%      0.0%
 flops    32 x    32 x    26             61128704       0.0%    100.0%      0.0%
 flops    26 x    32 x    32             61128704       0.0%    100.0%      0.0%
 flops    32 x    26 x    32             61128704       0.0%    100.0%      0.0%
 flops    46 x    26 x    49             73841040       0.0%    100.0%      0.0%
 flops    26 x    26 x    49             76516440       0.0%    100.0%      0.0%
 flops    36 x    32 x    46             80123904       0.0%    100.0%      0.0%
 flops    46 x    26 x    54             81375840       0.0%    100.0%      0.0%
 flops    26 x    26 x    54             84324240       0.0%    100.0%      0.0%
 flops    54 x    26 x    49             86682960       0.0%    100.0%      0.0%
 flops    32 x    32 x    46             87048192       0.0%    100.0%      0.0%
 flops    59 x    26 x    49             94709160       0.0%    100.0%      0.0%
 flops    54 x    26 x    54             95528160       0.0%    100.0%      0.0%
 flops    62 x    26 x    49             99524880       0.0%    100.0%      0.0%
 flops    36 x    32 x    26            100638720       0.0%    100.0%      0.0%
 flops    36 x    26 x    32            100638720       0.0%    100.0%      0.0%
 flops    59 x    26 x    54            104373360       0.0%    100.0%      0.0%
 flops    46 x    32 x    32            105512960       0.0%    100.0%      0.0%
 flops    72 x    32 x    46            106831872       0.0%    100.0%      0.0%
 flops    49 x    32 x    46            109057536       0.0%    100.0%      0.0%
 flops    62 x    26 x    54            109680480       0.0%    100.0%      0.0%
 flops    54 x    32 x    32            123863040       0.0%    100.0%      0.0%
 flops     5 x     5 x    32            125664000       0.0%    100.0%      0.0%
 flops    72 x    26 x    32            134184960       0.0%    100.0%      0.0%
 flops    72 x    32 x    26            134184960       0.0%    100.0%      0.0%
 flops    59 x    32 x    32            135331840       0.0%    100.0%      0.0%
 flops    13 x     5 x    26            136518200       0.0%    100.0%      0.0%
 flops     5 x    13 x    26            136754800       0.0%    100.0%      0.0%
 flops    49 x    26 x    32            136980480       0.0%    100.0%      0.0%
 flops    49 x    32 x    26            136980480       0.0%    100.0%      0.0%
 flops    62 x    32 x    32            142213120       0.0%    100.0%      0.0%
 flops    32 x    32 x    32            150470656       0.0%    100.0%      0.0%
 flops    36 x    26 x    49            173365920       0.0%    100.0%      0.0%
 flops    46 x    32 x    49            181762560       0.0%    100.0%      0.0%
 flops    26 x    32 x    49            188348160       0.0%    100.0%      0.0%
 flops    32 x    26 x    49            188348160       0.0%    100.0%      0.0%
 flops    36 x    26 x    54            191056320       0.0%    100.0%      0.0%
 flops    46 x    32 x    54            200309760       0.0%    100.0%      0.0%
 flops    26 x    32 x    54            207567360       0.0%    100.0%      0.0%
 flops    32 x    26 x    54            207567360       0.0%    100.0%      0.0%
 flops    54 x    32 x    49            213373440       0.0%    100.0%      0.0%
 flops    72 x    26 x    49            231154560       0.0%    100.0%      0.0%
 flops    59 x    32 x    49            233130240       0.0%    100.0%      0.0%
 flops    54 x    32 x    54            235146240       0.0%    100.0%      0.0%
 flops    49 x    26 x    49            235970280       0.0%    100.0%      0.0%
 flops    62 x    32 x    49            244984320       0.0%    100.0%      0.0%
 flops    36 x    32 x    32            247726080       0.0%    100.0%      0.0%
 flops     5 x    26 x     5            247747500       0.0%    100.0%      0.0%
 flops    72 x    26 x    54            254741760       0.0%    100.0%      0.0%
 flops    59 x    32 x    54            256919040       0.0%    100.0%      0.0%
 flops    49 x    26 x    54            260048880       0.0%    100.0%      0.0%
 flops    62 x    32 x    54            269982720       0.0%    100.0%      0.0%
 flops    72 x    32 x    32            330301440       0.0%    100.0%      0.0%
 flops    13 x     5 x    32            336044800       0.0%    100.0%      0.0%
 flops     5 x    13 x    32            336627200       0.0%    100.0%      0.0%
 flops    49 x    32 x    32            337182720       0.0%    100.0%      0.0%
 flops    13 x    13 x    26            387550800       0.0%    100.0%      0.0%
 flops    36 x    32 x    49            426746880       0.0%    100.0%      0.0%
 flops    32 x    32 x    49            463626240       0.0%    100.0%      0.0%
 flops    36 x    32 x    54            470292480       0.0%    100.0%      0.0%
 flops    32 x    32 x    54            510935040       0.0%    100.0%      0.0%
 flops    72 x    32 x    49            568995840       0.0%    100.0%      0.0%
 flops    49 x    32 x    49            580849920       0.0%    100.0%      0.0%
 flops     5 x    32 x     5            609840000       0.0%    100.0%      0.0%
 flops    72 x    32 x    54            627056640       0.0%    100.0%      0.0%
 flops    49 x    32 x    54            640120320       0.0%    100.0%      0.0%
 flops    13 x    26 x     5            683182500       0.0%    100.0%      0.0%
 flops     5 x    26 x    13            683182500       0.0%    100.0%      0.0%
 flops    13 x    13 x    32            953971200       0.0%    100.0%      0.0%
 flops     5 x    32 x    13           1681680000       0.0%    100.0%      0.0%
 flops    13 x    32 x     5           1681680000       0.0%    100.0%      0.0%
 flops    13 x    26 x    13           1883927500       0.0%    100.0%      0.0%
 flops    13 x    32 x    13           4637360000       0.0%    100.0%      0.0%
 flops inhomo. stacks                  1205646120     100.0%      0.0%      0.0%
 flops total                        29.020770E+09       4.2%     95.8%      0.0%
 flops max/rank                      1.821402E+09       5.0%     95.0%      0.0%
 matmuls inhomo. stacks                      6615     100.0%      0.0%      0.0%
 matmuls total                            3039057       0.2%     99.8%      0.0%
 number of processed stacks                538083       1.2%     98.8%      0.0%
 average stack size                                     1.0       5.7       0.0
 marketing flops                    31.361624E+09
 -------------------------------------------------------------------------------
 # multiplications                           1183
 max memory usage/rank               1.746944E+09
 # max total images/rank                        2
 # max 3D layers                                1
 # MPI messages exchanged                 1788696
 MPI messages size (bytes):
  total size                        14.801997E+09
  min size                           0.000000E+00
  max size                          50.976000E+03
  average size                       8.275301E+03
 MPI breakdown and total messages size (bytes):
             size <=      128             1225749                        0
       128 < size <=     8192               54033                389044320
      8192 < size <=    32768              270522               4230979200
     32768 < size <=   131072              238392              10181987200
    131072 < size <=  4194304                   0                        0
   4194304 < size <= 16777216                   0                        0
  16777216 < size                               0                        0
 -------------------------------------------------------------------------------

 *** WARNING in dbcsr_mm.F:294 :: Using a non-square number of MPI ranks ***
 *** might lead to poor performance. Used ranks: 72 Suggested: 64 144    ***

 -------------------------------------------------------------------------------
 -                                                                             -
 -                      DBCSR MESSAGE PASSING PERFORMANCE                      -
 -                                                                             -
 -------------------------------------------------------------------------------
 ROUTINE             CALLS      AVE VOLUME [Bytes]
 MP_Bcast              111                     12.
 MP_Allreduce         6393                      9.
 MP_Alltoall          5138                  11782.
 MP_ISend            55468                   5443.
 MP_IRecv            55006                   5175.
 -------------------------------------------------------------------------------

 -------------------------------------------------------------------------------
 -                                                                             -
 -                                GRID STATISTICS                              -
 -                                                                             -
 -------------------------------------------------------------------------------
 LP    KERNEL             BACKEND                              COUNT     PERCENT
 3     collocate ortho    REF                                2011617      23.77%
 3     integrate ortho    REF                                1895166      22.39%
 4     integrate ortho    REF                                1309573      15.47%
 4     collocate ortho    REF                                1221819      14.44%
 2     collocate ortho    REF                                 963552      11.39%
 2     integrate ortho    REF                                 856494      10.12%
 5     integrate ortho    REF                                 135755       1.60%
 0     collocate general  REF                                  34272       0.40%
 1     integrate general  REF                                  34272       0.40%
 -------------------------------------------------------------------------------

 MEMORY| Estimated peak process memory [MiB]                                1667

 -------------------------------------------------------------------------------
 -                                                                             -
 -                         MESSAGE PASSING PERFORMANCE                         -
 -                                                                             -
 -------------------------------------------------------------------------------

 ROUTINE             CALLS      AVE VOLUME [Bytes]
 MP_Group                8
 MP_Bcast             6919               10640976.
 MP_Allreduce         2429                1692072.
 MP_Sync                12
 MP_Alltoall          1344               15032489.
 MP_ISendRecv        17892                  57600.
 MP_Wait             28273
 MP_ISend             9079                 386870.
 MP_IRecv             9072                 386544.
 MP_Recv                77                  39680.
 -------------------------------------------------------------------------------


 -------------------------------------------------------------------------------
 -                                                                             -
 -                           R E F E R E N C E S                               -
 -                                                                             -
 -------------------------------------------------------------------------------
 
 CP2K version 8.1, the CP2K developers group (2020).
 CP2K is freely available from https://www.cp2k.org/ .

 Kuehne,Thomas D.; Iannuzzi,Marcella; Del Ben,Mauro;
 Rybkin,Vladimir V.; Seewald,Patrick; Stein,Frederick; Laino,Teodoro;
 Khaliullin,Rustam Z.; Schuett,Ole; Schiffmann,Florian; Golze,Dorothea;
 Wilhelm,Jan; Chulkov,Sergey; Bani-Hashemian,Mohammad Hossein;
 Weber,Valery; Borstnik,Urban; Taillefumier,Mathieu;
 Jakobovits,Alice Shoshana; Lazzaro,Alfio; Pabst,Hans; Mueller,Tiziano;
 Schade,Robert; Guidon,Manuel; Andermatt,Samuel; Holmberg,Nico;
 Schenter,Gregory K.; Hehn,Anna; Bussy,Augustin; Belleflamme,Fabian;
 Tabacchi,Gloria; Gloess,Andreas; Lass,Michael; Bethune,Iain;
 Mundy,Christopher J.; Plessl,Christian; Watkins,Matt;
 VandeVondele,Joost; Krack,Matthias; Hutter,Juerg. 
 The Journal of Chemical Physics, 152 (19), (2020). 
 CP2K: An electronic structure and molecular dynamics software package -
 Quickstep: Efficient and accurate electronic structure calculations.
 https://doi.org/10.1063/5.0007045

 Schuett, Ole; Messmer, Peter; Hutter, Juerg; VandeVondele, Joost. 
 Electronic Structure Calculations on Graphics Processing Units, John
 Wiley & Sons, Ltd, 173-190 (2016). 
 GPU-Accelerated Sparse Matrix-Matrix Multiplication for
 Linear Scaling Density Functional Theory.
 https://doi.org/10.1002/9781118670712.ch8

 Borstnik, U; VandeVondele, J; Weber, V; Hutter, J. 
 PARALLEL COMPUTING, 40 (5-6), 47-58 (2014). 
 Sparse matrix multiplication: The distributed block-compressed sparse
 row library.
 https://doi.org/10.1016/j.parco.2014.03.012

 Hutter, J; Iannuzzi, M; Schiffmann, F; VandeVondele, J. 
 WIREs Comput Mol Sci., 4 (1), 15-25 (2014). 
 CP2K: atomistic simulations of condensed matter systems.
 https://doi.org/10.1002/wcms.1159

 Marek, A; Blum, V; Johanni, R; Havu, V; Lang, B; Auckenthaler, T;
 Heinecke, A; Bungartz, H; Lederer, H. 
 Journal of Physics: Condensed Matter, 26 (21), (2014). 
 The ELPA library: scalable parallel eigenvalue solutions for
 electronic structure
 theory and computational science.
 https://doi.org/10.1088/0953-8984/26/21/213201

 VandeVondele, J; Hutter, J. 
 JOURNAL OF CHEMICAL PHYSICS, 127 (11), 114105 (2007). 
 Gaussian basis sets for accurate calculations on molecular systems in
 gas and condensed phases.
 https://doi.org/10.1063/1.2770708

 Kuhne, TD; Krack, M; Mohamed, FR; Parrinello, M. 
 PHYSICAL REVIEW LETTERS, 98 (6), 066401 (2007). 
 Efficient and accurate Car-Parrinello-like approach to
 Born-Oppenheimer molecular dynamics.
 https://doi.org/10.1103/PhysRevLett.98.066401

 Laino, T; Mohamed, F; Laio, A; Parrinello, M. 
 JOURNAL OF CHEMICAL THEORY AND COMPUTATION, 2 (5), 1370-1378 (2006). 
 An efficient linear-scaling electrostatic coupling for treating
 periodic boundary conditions in QM/MM simulations.
 https://doi.org/10.1021/ct6001169

 Laino, T; Mohamed, F; Laio, A; Parrinello, M. 
 JOURNAL OF CHEMICAL THEORY AND COMPUTATION, 1 (6), 1176-1184 (2005). 
 An efficient real space multigrid QM/MM electrostatic coupling.
 https://doi.org/10.1021/ct050123f

 Krack, M. 
 THEORETICAL CHEMISTRY ACCOUNTS, 114 (1-3), 145-152 (2005). 
 Pseudopotentials for H to Kr optimized for gradient-corrected
 exchange-correlation functionals.
 https://doi.org/10.1007/s00214-005-0655-y

 VandeVondele, J; Krack, M; Mohamed, F; Parrinello, M; Chassaing, T;
 Hutter, J. COMPUTER PHYSICS COMMUNICATIONS, 167 (2), 103-128 (2005). 
 QUICKSTEP: Fast and accurate density functional calculations using a
 mixed Gaussian and plane waves approach.
 https://doi.org/10.1016/j.cpc.2004.12.014

 Frigo, M; Johnson, SG. 
 PROCEEDINGS OF THE IEEE, 93 (2), 216-231 (2005). 
 The design and implementation of FFTW3.
 https://doi.org/10.1109/JPROC.2004.840301

 Kolafa, J. 
 JOURNAL OF COMPUTATIONAL CHEMISTRY, 25 (3), 335-342 (2004). 
 Time-reversible always stable predictor-corrector method for molecular dynamics of polarizable molecules.
 https://doi.org/10.1002/jcc.10385

 VandeVondele, J; Hutter, J. 
 JOURNAL OF CHEMICAL PHYSICS, 118 (10), 4365-4369 (2003). 
 An efficient orbital transformation method for electronic structure
 calculations.
 https://doi.org/10.1063/1.1543154

 Hartwigsen, C; Goedecker, S; Hutter, J. 
 PHYSICAL REVIEW B, 58 (7), 3641-3662 (1998). 
 Relativistic separable dual-space Gaussian pseudopotentials from H to Rn.
 https://doi.org/10.1103/PhysRevB.58.3641

 Lippert, G; Hutter, J; Parrinello, M. 
 MOLECULAR PHYSICS, 92 (3), 477-487 (1997). 
 A hybrid Gaussian and plane wave density functional scheme.
 https://doi.org/10.1080/002689797170220

 Perdew, JP; Burke, K; Ernzerhof, M. 
 PHYSICAL REVIEW LETTERS, 77 (18), 3865-3868 (1996). 
 Generalized gradient approximation made simple.
 https://doi.org/10.1103/PhysRevLett.77.3865

 Goedecker, S; Teter, M; Hutter, J. 
 PHYSICAL REVIEW B, 54 (3), 1703-1710 (1996). 
 Separable dual-space Gaussian pseudopotentials.
 https://doi.org/10.1103/PhysRevB.54.1703

 ESSMANN, U; PERERA, L; BERKOWITZ, ML; DARDEN, T; LEE, H; PEDERSEN, LG. 
 JOURNAL OF CHEMICAL PHYSICS, 103 (19), 8577-8593 (1995). 
 A SMOOTH PARTICLE MESH EWALD METHOD.
 https://doi.org/10.1063/1.470117

 BLOCHL, PE. 
 JOURNAL OF CHEMICAL PHYSICS, 103 (17), 7422-7428 (1995). 
 ELECTROSTATIC DECOUPLING OF PERIODIC IMAGES OF PLANE-WAVE-EXPANDED
 DENSITIES AND DERIVED ATOMIC POINT CHARGES.
 https://doi.org/10.1063/1.470314


 -------------------------------------------------------------------------------
 -                                                                             -
 -                                T I M I N G                                  -
 -                                                                             -
 -------------------------------------------------------------------------------
 SUBROUTINE                       CALLS  ASD         SELF TIME        TOTAL TIME
                                MAXIMUM       AVERAGE  MAXIMUM  AVERAGE  MAXIMUM
 CP2K                                 1  1.0    0.391    0.419  422.705  422.706
 qs_mol_dyn_low                       1  2.0    0.017    0.031  363.570  365.583
 velocity_verlet                      6  3.0    0.049    0.051  314.757  314.811
 qmmm_forces                          7  3.9    0.046    0.048  134.975  134.978
 qmmm_forces_with_gaussian            7  4.9    0.040    0.049  131.704  133.808
 qs_forces                            7  3.9    0.001    0.002  113.342  113.356
 qmmm_el_coupling                     7  3.9    0.000    0.000  103.838  104.491
 qmmm_elec_with_gaussian              7  4.9    0.023    0.026  103.831  104.485
 qs_energies                          7  4.9    0.001    0.001  104.273  104.287
 scf_env_do_scf                       7  5.9    0.000    0.000   98.372   98.372
 scf_env_do_scf_inner_loop           56  6.9    0.002    0.004   89.808   89.851
 qmmm_force_with_gaussian_low         7  5.9    0.000    0.000   85.270   86.612
 qmmm_forces_gaussian_low_R           7  6.9    0.000    0.000   72.394   73.698
 qmmm_forces_with_gaussian_LG         7  7.9   72.394   73.698   72.394   73.698
 rebuild_ks_matrix                   63  8.6    0.000    0.000   69.756   69.769
 qs_ks_build_kohn_sham_matrix        63  9.6    0.009    0.010   69.756   69.769
 qmmm_elec_with_gaussian_low          7  5.9    0.000    0.000   61.854   65.225
 qs_ks_update_qs_env                 63  7.9    0.000    0.001   61.093   61.105
 qmmm_env_create                      1  2.0   14.450   15.130   56.655   56.660
 qmmm_elec_gaussian_low_R             7  6.9    0.000    0.000   49.555   53.231
 qmmm_elec_with_gaussian_LG           7  7.9   49.555   53.231   49.555   53.231
 pw_transfer                       1337 12.1    0.097    0.131   44.275   46.753
 fft_wrap_pw1pw2                   1113 13.2    0.014    0.017   43.623   46.090
 fft_wrap_pw1pw2_200                707 14.4    2.463    2.724   42.612   45.024
 pw_restrict_s3                      21  5.9   12.065   12.411   40.047   41.079
 qs_rho_update_rho                   63  8.0    0.000    0.000   39.203   39.209
 calculate_rho_elec                  63  9.0    0.135    0.152   39.203   39.208
 fft3d_ps                          1113 15.2   16.854   18.497   35.962   38.528
 fist_init                            1  3.0    0.004    0.031   37.044   37.044
 density_rs2pw                       63 10.0    0.004    0.004   32.553   35.057
 pw_integral_ab                    2967  7.5   33.132   33.686   33.389   33.921
 qs_vxc_create                       63 10.6    0.001    0.002   33.905   33.918
 xc_vxc_pw_create                    63 11.6    0.274    0.421   33.904   33.916
 rs_pw_transfer                     546 11.9    0.009    0.011   30.247   32.723
 qmmm_elec_with_gaussian:spline       7  5.9    0.000    0.000   30.213   30.821
 pw_prolongate_s3                    21  6.9    9.095    9.243   30.213   30.821
 sum_up_and_integrate                63 10.6    0.096    0.114   28.593   28.674
 integrate_v_rspace                  63 11.6    0.002    0.003   28.497   28.584
 grid_collocate_task_list            63 10.0    6.314   28.068    6.314   28.068
 mp_waitany                        9072 13.5   25.155   27.754   25.155   27.754
 rs_pw_transfer_RS2PW_200            70 11.8    0.781    1.023   22.954   25.412
 mp_sum_dm3                          38  5.7   20.065   21.216   20.065   21.216
 force_field_control                  1  4.0    0.003    0.021   20.499   21.185
 mp_alltoall_z22v                  1113 17.2   16.412   19.431   16.412   19.431
 grid_integrate_task_list            63 12.6    2.661   19.002    2.661   19.002
 rdparm_amber_8                       2  6.5   14.198   15.678   18.023   18.625
 mp_alltoall_d11v                  1417 13.5   16.461   18.172   16.461   18.172
 rs_gather_matrices                  63 12.6    0.003    0.004   16.371   18.084
 xc_rho_set_and_dset_create          63 12.6    0.090    0.122   15.806   17.680
 topology_control                     1  4.0    0.001    0.021   15.781   17.051
 qmmm_forces_gaussian_low_G           7  6.9   12.876   14.046   12.876   14.046
 qmmm_elec_gaussian_low_G             7  6.9   12.299   13.658   12.299   13.658
 yz_to_x                            518 15.8    0.836    0.980    9.685   12.541
 force_field_pack                     1  5.0    0.020    0.024   11.699   12.298
 connectivity_control                 2  4.0    0.001    0.024    9.572    9.693
 x_to_yz                            595 16.6    1.824    2.084    9.387    9.589
 potential_pw2rs                     63 12.6    0.008    0.009    9.458    9.547
 read_connectivity_amber              1  6.0    0.000    0.000    9.362    9.486
 read_force_field_amber               1  5.0    0.012    0.013    8.673    9.155
 mp_sum_dm                          768  5.2    6.722    8.737    6.722    8.737
 qs_ks_update_qs_env_forces           7  4.9    0.000    0.000    8.668    8.670
 init_scf_loop                        7  6.9    0.000    0.000    8.516    8.518
 -------------------------------------------------------------------------------

 The number of warnings for this run is : 1
 
 -------------------------------------------------------------------------------
  **** **** ******  **  PROGRAM ENDED AT                 2021-02-26 12:19:03.958
 ***** ** ***  *** **   PROGRAM RAN ON                                    r1i6n3
 **    ****   ******    PROGRAM RAN BY                                    hollyj
 ***** **    ** ** **   PROGRAM PROCESS ID                                 38745
  **** **  *******  **  PROGRAM STOPPED IN /lustre/home/w68/hollyj/CP2K/Cirrus/C
                                           PU/cp2kMD/CBD_PHY/6STEPS/4NODES/36CPN
                                           /2THREADS
