 DBCSR| CPU Multiplication driver                                           XSMM
 DBCSR| Multrec recursion limit                                              512
 DBCSR| Multiplication stack size                                           1000
 DBCSR| Maximum elements for images                                    UNLIMITED
 DBCSR| Multiplicative factor virtual images                                   1
 DBCSR| Use multiplication densification                                       T
 DBCSR| Multiplication size stacks                                             3
 DBCSR| Use memory pool for CPU allocation                                     F
 DBCSR| Number of 3D layers                                               SINGLE
 DBCSR| Use MPI memory allocation                                              F
 DBCSR| Use RMA algorithm                                                      F
 DBCSR| Use Communication thread                                               T
 DBCSR| Communication thread load                                             87
 DBCSR| MPI: My node id                                                        0
 DBCSR| MPI: Number of nodes                                                  72
 DBCSR| OMP: Current number of threads                                         1
 DBCSR| OMP: Max number of threads                                             1
 DBCSR| Split modifier for TAS multiplication algorithm                  1.0E+00


  **** **** ******  **  PROGRAM STARTED AT               2021-02-24 10:16:09.207
 ***** ** ***  *** **   PROGRAM STARTED ON                               r1i1n10
 **    ****   ******    PROGRAM STARTED BY                                hollyj
 ***** **    ** ** **   PROGRAM PROCESS ID                                 43837
  **** **  *******  **  PROGRAM STARTED IN /lustre/home/w68/hollyj/CP2K/Cirrus/C
                                           PU/cp2kMD/ClC-19/1STEPS/2NODES/36CPN/
                                           1THREADS

 CP2K| version string:                                          CP2K version 8.1
 CP2K| source code revision number:                                  git:0b61f2f
 CP2K| cp2kflags: omp libint fftw3 libxc elpa parallel mpi3 scalapack xsmm spgli
 CP2K|            b mkl
 CP2K| is freely available from                            https://www.cp2k.org/
 CP2K| Program compiled at                           Mon Feb 1 13:14:42 GMT 2021
 CP2K| Program compiled on                                         cirrus-login1
 CP2K| Program compiled for                                           Cirrus-gcc
 CP2K| Data directory path       /lustre/home/w68/hollyj/CP2K/v8.1/cp2k-8.1/data
 CP2K| Input file name                                           ClC-19-cp2k.inp

 GLOBAL| Force Environment number                                              1
 GLOBAL| Basis set file name                                        BASIS_MOLOPT
 GLOBAL| Potential file name                                           POTENTIAL
 GLOBAL| MM Potential file name                                     MM_POTENTIAL
 GLOBAL| Coordinate file name                                            ClC.pdb
 GLOBAL| Method name                                                        CP2K
 GLOBAL| Project name                                                ClC-19-BLYP
 GLOBAL| Preferred FFT library                                             FFTW3
 GLOBAL| Preferred diagonalization lib.                                     ELPA
 GLOBAL| Run type                                                             MD
 GLOBAL| All-to-all communication in single precision                          F
 GLOBAL| FFTs using library dependent lengths                                  F
 GLOBAL| Global print level                                                  LOW
 GLOBAL| MPI I/O enabled                                                       T
 GLOBAL| Total number of message passing processes                            72
 GLOBAL| Number of threads for this process                                    1
 GLOBAL| This output is from process                                           0
 GLOBAL| CPU model name                Intel(R) Xeon(R) CPU E5-2695 v4 @ 2.10GHz
 GLOBAL| CPUID                                                              1002
 GLOBAL| Compiled for CPUID                                                 1001

 *** HINT in environment.F:802 :: The compiler target flags (x86_avx) used ***
 *** to build this binary cannot exploit all extensions of this CPU model  ***
 *** (x86_avx2). Consider compiler target flags as part of FCFLAGS and     ***
 *** CFLAGS (ARCH file).                                                   ***


 MEMORY| system memory details [Kb]
 MEMORY|                        rank 0           min           max       average
 MEMORY| MemTotal            263692180     263692180     263692180     263692180
 MEMORY| MemFree             257591084     241905288     257591084     249748186
 MEMORY| Buffers                     0             0             0             0
 MEMORY| Cached                 858708        858708      14552272       7705490
 MEMORY| Slab                  1001928       1001928       2968128       1985028
 MEMORY| SReclaimable           255816        255816        398836        327326
 MEMORY| MemLikelyFree       258705608     256856396     258705608     257781002



                      ************* ******** ***********   
                     ************* **********************  
                     ****     **** ****      ***********   
                     ******** ****  *******     ****       
                     *******  ****   *******   ****        
                     ****     ****       ****  ****        
                     ****     **** **********  ****        
                      ****     **** ********    ****       
                     FRONTIERS IN SIMULATION TECHNOLOGY    
                                                           
                        C.J. Mundy, S. Balasubramanian,    
                     Ken Bagchi, J. Hutter, Ari Seitsonen  
                      IFW Kuo, T. Laino, J. VandeVondele   
                                 Version 1.0               

                                                           


 EWALD| Summation is done by:                                               SPME
 EWALD| Alpha parameter [       ANGSTROM^-1]                              0.4000
 EWALD| Real Space Cutoff [          ANGSTROM]                            8.4348
 EWALD| G-space max. Miller index                         80        80        80
 EWALD| Spline interpolation order                                             6

 FORCEFIELD| WARNING: A non Critical ForceField parameter is missing! CP2K GOES!
 FORCEFIELD| Non critical parameters are:Urey-Bradley,Torsions,Impropers, Opbends and 1-4
 FORCEFIELD| All missing parameters will not contribute to the potential energy!
 FORCEFIELD| Activate the print key FF_INFO to have a list of missing parameters

 CHARGE_INFO| Total Charge of the Classical System:                     0.856595

 SPLINE_INFO| Generating 49141 splines for NONBONDED14 interactions 
              Due to 313 different atomic kinds
  ...4914  ...9828  ...14742  ...19656  ...24570  ...29484  ...34398  ...39312  ...44226  ...49140
 SPLINE_INFO| Number of unique splines computed:            254
 SPLINE_INFO| Done

 SPLINE_INFO| Generating 49141 splines for NONBONDED interactions 
              Due to 313 different atomic kinds
  ...4914  ...9828  ...14742  ...19656  ...24570  ...29484  ...34398  ...39312  ...44226  ...49140
 SPLINE_INFO| Number of unique splines computed:            254
 SPLINE_INFO| Done

 *******************************************************************************
 *******************************************************************************
 **                                                                           **
 **     #####                         ##              ##                      **
 **    ##   ##            ##          ##              ##                      **
 **   ##     ##                       ##            ######                    **
 **   ##     ##  ##   ##  ##   #####  ##  ##   ####   ##    #####    #####    **
 **   ##     ##  ##   ##  ##  ##      ## ##   ##      ##   ##   ##  ##   ##   **
 **   ##  ## ##  ##   ##  ##  ##      ####     ###    ##   ######   ######    **
 **    ##  ###   ##   ##  ##  ##      ## ##      ##   ##   ##       ##        **
 **     #######   #####   ##   #####  ##  ##  ####    ##    #####   ##        **
 **           ##                                                    ##        **
 **                                                                           **
 **                                                ... make the atoms dance   **
 **                                                                           **
 **            Copyright (C) by CP2K developers group (2000 - 2020)           **
 **                      J. Chem. Phys. 152, 194103 (2020)                    **
 **                                                                           **
 *******************************************************************************


 TOTAL NUMBERS AND MAXIMUM NUMBERS

  Total number of            - Atomic kinds:                                   4
                             - Atoms:                                         21
                             - Shell sets:                                    21
                             - Shells:                                        83
                             - Primitive Cartesian functions:                147
                             - Cartesian basis functions:                    195
                             - Spherical basis functions:                    185

  Maximum angular momentum of- Orbital basis functions:                        2
                             - Local part of the GTH pseudopotential:          2
                             - Non-local part of the GTH pseudopotential:      0


 SCF PARAMETERS         Density guess:                                   RESTART
                        --------------------------------------------------------
                        max_scf:                                             300
                        max_scf_history:                                       0
                        max_diis:                                              4
                        --------------------------------------------------------
                        eps_scf:                                        1.00E-06
                        eps_scf_history:                                0.00E+00
                        eps_diis:                                       1.00E-01
                        eps_eigval:                                     1.00E-05
                        --------------------------------------------------------
                        level_shift [a.u.]:                                 0.00
                        --------------------------------------------------------
                        No outer SCF

 *******************************************************************************
 *******************************************************************************
 **                                                                           **
 **             #######  ##     ## ##     ## ##     ##                        **
 **            ##     ## ###   ### ###   ### ###   ###                        **
 **            ##     ## #### #### #### #### #### ####                        **
 **            ##     ## ## ### ## ## ### ## ## ### ##                        **
 **            ##  ## ## ##     ## ##     ## ##     ##                        **
 **            ##    ##  ##     ## ##     ## ##     ##  T.Laino and F.Mohamed **
 **             ##### ## ##     ## ##     ## ##     ##  2005 - 2015           **
 **                                                                           **
 **                                                     Calculation Started.. **
 *******************************************************************************
 *******************************************************************************

 MD_PAR| Molecular dynamics protocol (MD input parameters)
 MD_PAR| Ensemble type                                                       NVE
 MD_PAR| Number of time steps                                                  1
 MD_PAR| Time step [fs]                                                 1.000000
 MD_PAR| Temperature [K]                                              300.000000
 MD_PAR| Temperature tolerance [K]                                      0.000000
 MD_PAR| Print MD information every                                    1 step(s)
 MD_PAR| File type   Print frequency [steps]                          File names
 MD_PAR| Coordinates          1                                    CIC-pos-1.xyz
 MD_PAR| Velocities           1                                    CIC-vel-1.xyz
 MD_PAR| Energies             1                                       CIC-1.ener
 MD_PAR| Dump                20                                    CIC-1.restart

 ROT| Rotational analysis information
 ROT| Principal axes and moments of inertia [a.u.]
 ROT|                           1                   2                   3
 ROT| Eigenvalues      1.18228221563E+13   1.18772146411E+13   1.55923586977E+13
 ROT|      x             -0.973134378681     -0.230223222672      0.002597839626
 ROT|      y             -0.230225448758      0.973137141292     -0.000589052320
 ROT|      z              0.002392440703      0.001171315857      0.999996452117
 ROT| Number of rotovibrational vectors                                        6

 DOF| Calculation of degrees of freedom
 DOF| Number of atoms                                                     150925
 DOF| Number of intramolecular constraints                                     0
 DOF| Number of intermolecular constraints                                     0
 DOF| Invariants (translations + rotations)                                    3
 DOF| Degrees of freedom                                                  452772

 DOF| Restraints information
 DOF| Number of intramolecular restraints                                      0
 DOF| Number of intermolecular restraints                                      0

 MD_VEL| Velocities initialization
 MD_VEL| Initial temperature [K]                                      300.000000
 MD_VEL| COM velocity            -0.0000000000     0.0000000000     0.0000000000

  Translating the system in order to center the QM fragment in the QM box.

 Number of electrons:                                                         58
 Number of occupied orbitals:                                                 29
 Number of molecular orbitals:                                                29

 Number of orbital functions:                                                185
 Number of independent orbital functions:                                    185

 Extrapolation method: initial_guess


 SCF WAVEFUNCTION OPTIMIZATION

  ----------------------------------- OT ---------------------------------------
  Minimizer      : DIIS                : direct inversion
                                         in the iterative subspace
                                         using   7 DIIS vectors
                                         safer DIIS on
  Preconditioner : FULL_ALL            : diagonalization, state selective
  Precond_solver : DEFAULT
  stepsize       :    0.15000000                  energy_gap     :    0.08000000
  eps_taylor     :   0.10000E-15                  max_taylor     :             4
  ----------------------------------- OT ---------------------------------------

  Step     Update method      Time    Convergence         Total energy    Change
  ------------------------------------------------------------------------------
  Decoupling Energy:                                               0.0436562741
  Recoupling Energy:                                              -0.0063494342
     1 OT DIIS     0.15E+00    0.5     0.00000182      -112.6112974748 -1.13E+02
  Decoupling Energy:                                               0.0436561268
  Recoupling Energy:                                              -0.0063494341
     2 OT DIIS     0.15E+00    0.6     0.00000240      -112.6112974763 -1.51E-09
  Decoupling Energy:                                               0.0436563219
  Recoupling Energy:                                              -0.0063494343
     3 OT DIIS     0.15E+00    0.7     0.00000182      -112.6112974769 -5.98E-10
  Decoupling Energy:                                               0.0436561686
  Recoupling Energy:                                              -0.0063494341
     4 OT DIIS     0.15E+00    0.6     0.00000200      -112.6112974776 -6.71E-10
  Decoupling Energy:                                               0.0436562000
  Recoupling Energy:                                              -0.0063494342
     5 OT DIIS     0.15E+00    0.6     0.00000079      -112.6112974786 -9.61E-10

  *** SCF run converged in     5 steps ***


  Electronic density on regular grids:        -58.0000000031       -0.0000000031
  Core density on regular grids:               59.0000000000       -0.0000000000
  Total charge density on r-space grids:        0.9999999969
  Total charge density g-space grids:           0.9999999969

  Overlap energy of the core charge distribution:               0.00000276462327
  Self energy of the core charge distribution:               -262.49982108018173
  Core Hamiltonian energy:                                     77.82713604552566
  Hartree energy:                                             108.26024348690757
  Exchange-correlation energy:                                -27.74149564710885
  QM/MM Electrostatic energy:                                  -8.45736304834546

  Total energy:                                              -112.61129747857953
  Decoupling Energy:                                               0.0436562428
  Recoupling Energy:                                              -0.0063494344

 ENERGY| Total FORCE_EVAL ( QMMM ) energy [a.u.]:           -574.282125877639487

 MD_INI| MD initialization
 MD_INI| Potential energy [hartree]                          -0.574282125878E+03
 MD_INI| Total kinetic energy [hartree]                       0.215076797492E+03
 MD_INI| QM kinetic energy [hartree]                          0.263607482367E-01
 MD_INI| Total temperature [K]                                        300.000000
 MD_INI| QM temperature [K]                                           264.255746
 MD_INI| Cell volume [bohr^3]                                 9.853827160554E+06
 MD_INI| Cell volume [ang^3]                                  1.460186515536E+06
 MD_INI| Cell lengths [bohr]      2.39870119E+02  2.39870119E+02  1.71258698E+02
 MD_INI| Cell lengths [ang]       1.26933800E+02  1.26933800E+02  9.06262000E+01
 MD_INI| Cell angles [deg]        9.00000000E+01  9.00000000E+01  9.00000000E+01

  Translating the system in order to center the QM fragment in the QM box.

 Number of electrons:                                                         58
 Number of occupied orbitals:                                                 29
 Number of molecular orbitals:                                                29

 Number of orbital functions:                                                185
 Number of independent orbital functions:                                    185

 Extrapolation method: ASPC


 SCF WAVEFUNCTION OPTIMIZATION

  ----------------------------------- OT ---------------------------------------
  Minimizer      : DIIS                : direct inversion
                                         in the iterative subspace
                                         using   7 DIIS vectors
                                         safer DIIS on
  Preconditioner : FULL_ALL            : diagonalization, state selective
  Precond_solver : DEFAULT
  stepsize       :    0.15000000                  energy_gap     :    0.08000000
  eps_taylor     :   0.10000E-15                  max_taylor     :             4
  ----------------------------------- OT ---------------------------------------

  Step     Update method      Time    Convergence         Total energy    Change
  ------------------------------------------------------------------------------
  Decoupling Energy:                                               0.0436638312
  Recoupling Energy:                                              -0.0063493931
     1 OT DIIS     0.15E+00    0.5     0.00128847      -112.5701658558 -1.13E+02
  Decoupling Energy:                                               0.0435725349
  Recoupling Energy:                                              -0.0063490919
     2 OT DIIS     0.15E+00    0.7     0.00117277      -112.5707957167 -6.30E-04
  Decoupling Energy:                                               0.0436794857
  Recoupling Energy:                                              -0.0063494033
     3 OT DIIS     0.15E+00    0.7     0.00106621      -112.5709080938 -1.12E-04
  Decoupling Energy:                                               0.0436555304
  Recoupling Energy:                                              -0.0063493377
     4 OT DIIS     0.15E+00    0.7     0.00054258      -112.5710430825 -1.35E-04
  Decoupling Energy:                                               0.0436136304
  Recoupling Energy:                                              -0.0063492191
     5 OT DIIS     0.15E+00    0.7     0.00042770      -112.5710771372 -3.41E-05
  Decoupling Energy:                                               0.0436405133
  Recoupling Energy:                                              -0.0063492662
     6 OT DIIS     0.15E+00    0.7     0.00015610      -112.5710919046 -1.48E-05
  Decoupling Energy:                                               0.0436362635
  Recoupling Energy:                                              -0.0063493091
     7 OT DIIS     0.15E+00    0.7     0.00010447      -112.5710969845 -5.08E-06
  Decoupling Energy:                                               0.0436367088
  Recoupling Energy:                                              -0.0063492782
     8 OT DIIS     0.15E+00    0.7     0.00006947      -112.5711018745 -4.89E-06
  Decoupling Energy:                                               0.0436342406
  Recoupling Energy:                                              -0.0063492680
     9 OT DIIS     0.15E+00    0.7     0.00005887      -112.5711079602 -6.09E-06
  Decoupling Energy:                                               0.0436357469
  Recoupling Energy:                                              -0.0063492717
    10 OT DIIS     0.15E+00    0.7     0.00005134      -112.5711127530 -4.79E-06
  Decoupling Energy:                                               0.0436354455
  Recoupling Energy:                                              -0.0063492607
    11 OT DIIS     0.15E+00    0.7     0.00004543      -112.5711155149 -2.76E-06
  Decoupling Energy:                                               0.0436337136
  Recoupling Energy:                                              -0.0063492487
    12 OT DIIS     0.15E+00    0.7     0.00004713      -112.5711177162 -2.20E-06
  Decoupling Energy:                                               0.0436330885
  Recoupling Energy:                                              -0.0063492432
    13 OT DIIS     0.15E+00    0.7     0.00004290      -112.5711188527 -1.14E-06
  Decoupling Energy:                                               0.0436360387
  Recoupling Energy:                                              -0.0063492432
    14 OT DIIS     0.15E+00    0.7     0.00005298      -112.5711204729 -1.62E-06
  Decoupling Energy:                                               0.0436334052
  Recoupling Energy:                                              -0.0063492363
    15 OT DIIS     0.15E+00    0.7     0.00003866      -112.5711231586 -2.69E-06
  Decoupling Energy:                                               0.0436327091
  Recoupling Energy:                                              -0.0063492116
    16 OT DIIS     0.15E+00    0.7     0.00003481      -112.5711248023 -1.64E-06
  Decoupling Energy:                                               0.0436311761
  Recoupling Energy:                                              -0.0063491941
    17 OT DIIS     0.15E+00    0.7     0.00002605      -112.5711275090 -2.71E-06
  Decoupling Energy:                                               0.0436315667
  Recoupling Energy:                                              -0.0063491836
    18 OT DIIS     0.15E+00    0.7     0.00002405      -112.5711291988 -1.69E-06
  Decoupling Energy:                                               0.0436302360
  Recoupling Energy:                                              -0.0063491683
    19 OT DIIS     0.15E+00    0.7     0.00001910      -112.5711300853 -8.86E-07
  Decoupling Energy:                                               0.0436280567
  Recoupling Energy:                                              -0.0063491582
    20 OT DIIS     0.15E+00    0.7     0.00002582      -112.5711305511 -4.66E-07
  Decoupling Energy:                                               0.0436288820
  Recoupling Energy:                                              -0.0063491549
    21 OT DIIS     0.15E+00    0.7     0.00001507      -112.5711306194 -6.84E-08
  Decoupling Energy:                                               0.0436298687
  Recoupling Energy:                                              -0.0063491547
    22 OT DIIS     0.15E+00    0.7     0.00001828      -112.5711307061 -8.67E-08
  Decoupling Energy:                                               0.0436285337
  Recoupling Energy:                                              -0.0063491528
    23 OT DIIS     0.15E+00    0.7     0.00001011      -112.5711307507 -4.46E-08
  Decoupling Energy:                                               0.0436284905
  Recoupling Energy:                                              -0.0063491486
    24 OT DIIS     0.15E+00    0.7     0.00000640      -112.5711307616 -1.09E-08
  Decoupling Energy:                                               0.0436283003
  Recoupling Energy:                                              -0.0063491476
    25 OT DIIS     0.15E+00    0.7     0.00000372      -112.5711307576  4.06E-09
  Decoupling Energy:                                               0.0436284453
  Recoupling Energy:                                              -0.0063491484
    26 OT DIIS     0.15E+00    0.7     0.00000312      -112.5711307615 -3.97E-09
  Decoupling Energy:                                               0.0436283448
  Recoupling Energy:                                              -0.0063491479
    27 OT DIIS     0.15E+00    0.7     0.00000280      -112.5711307614  1.54E-10
  Decoupling Energy:                                               0.0436282354
  Recoupling Energy:                                              -0.0063491479
    28 OT DIIS     0.15E+00    0.7     0.00000291      -112.5711307634 -2.02E-09
  Decoupling Energy:                                               0.0436283404
  Recoupling Energy:                                              -0.0063491483
    29 OT DIIS     0.15E+00    0.7     0.00000257      -112.5711307684 -5.01E-09
  Decoupling Energy:                                               0.0436285258
  Recoupling Energy:                                              -0.0063491490
    30 OT DIIS     0.15E+00    0.7     0.00000329      -112.5711307714 -2.95E-09
  Decoupling Energy:                                               0.0436283638
  Recoupling Energy:                                              -0.0063491495
    31 OT DIIS     0.15E+00    0.7     0.00000237      -112.5711307782 -6.89E-09
  Decoupling Energy:                                               0.0436283410
  Recoupling Energy:                                              -0.0063491485
    32 OT DIIS     0.15E+00    0.7     0.00000230      -112.5711307786 -3.45E-10
  Decoupling Energy:                                               0.0436284001
  Recoupling Energy:                                              -0.0063491498
    33 OT DIIS     0.15E+00    0.7     0.00000153      -112.5711307863 -7.68E-09
  Decoupling Energy:                                               0.0436284856
  Recoupling Energy:                                              -0.0063491505
    34 OT DIIS     0.15E+00    0.7     0.00000139      -112.5711307900 -3.73E-09
  Decoupling Energy:                                               0.0436284816
  Recoupling Energy:                                              -0.0063491508
    35 OT DIIS     0.15E+00    0.7     0.00000114      -112.5711307932 -3.19E-09
  Decoupling Energy:                                               0.0436284927
  Recoupling Energy:                                              -0.0063491515
    36 OT DIIS     0.15E+00    0.7     0.00000117      -112.5711307966 -3.43E-09
  Decoupling Energy:                                               0.0436285696
  Recoupling Energy:                                              -0.0063491519
    37 OT DIIS     0.15E+00    0.7     0.00000143      -112.5711307977 -1.05E-09
  Decoupling Energy:                                               0.0436286739
  Recoupling Energy:                                              -0.0063491525
    38 OT DIIS     0.15E+00    0.7     0.00000144      -112.5711307990 -1.29E-09
  Decoupling Energy:                                               0.0436285928
  Recoupling Energy:                                              -0.0063491528
    39 OT DIIS     0.15E+00    0.7     0.00000072      -112.5711307995 -5.72E-10

  *** SCF run converged in    39 steps ***


  Electronic density on regular grids:        -57.9999999985        0.0000000015
  Core density on regular grids:               59.0000000000       -0.0000000000
  Total charge density on r-space grids:        1.0000000015
  Total charge density g-space grids:           1.0000000015

  Overlap energy of the core charge distribution:               0.00000254932108
  Self energy of the core charge distribution:               -262.49982108018173
  Core Hamiltonian energy:                                     77.74842965350942
  Hartree energy:                                             108.31580475913802
  Exchange-correlation energy:                                -27.71946815278720
  QM/MM Electrostatic energy:                                  -8.41607852852902

  Total energy:                                              -112.57113079952941
  Decoupling Energy:                                               0.0436285925
  Recoupling Energy:                                              -0.0063491525

 ENERGY| Total FORCE_EVAL ( QMMM ) energy [a.u.]:           -552.394403094915106

 MD| ***************************************************************************
 MD| Step number                                                               1
 MD| Time [fs]                                                          1.000000
 MD| Conserved quantity [hartree]                            -0.353696654772E+03
 MD| ---------------------------------------------------------------------------
 MD|                                          Instantaneous             Averages
 MD| CPU time per MD step [s]                     70.193065            70.193065
 MD| Energy drift per atom [K]           0.115255886752E+02   0.000000000000E+00
 MD| Potential energy [hartree]         -0.552394403095E+03  -0.552394403095E+03
 MD| Total kinetic energy [hartree]      0.198697748323E+03   0.198697748323E+03
 MD| QM kinetic energy [hartree]         0.283943544537E-01   0.283943544537E-01
 MD| Total temperature [K]                       277.153673           277.153673
 MD| QM temperature [K]                          284.641818           284.641818
 MD| ***************************************************************************

 -------------------------------------------------------------------------------
 -                                                                             -
 -                                DBCSR STATISTICS                             -
 -                                                                             -
 -------------------------------------------------------------------------------
 COUNTER                                    TOTAL       BLAS       SMM       ACC
 flops    36 x    29 x    10              3841920       0.0%    100.0%      0.0%
 flops     5 x     5 x    29              4593600       0.0%    100.0%      0.0%
 flops    28 x    29 x    10              5976320       0.0%    100.0%      0.0%
 flops    29 x    29 x    10              5987920       0.0%    100.0%      0.0%
 flops    36 x    29 x    13              7491744       0.0%    100.0%      0.0%
 flops    31 x    29 x    10              9924960       0.0%    100.0%      0.0%
 flops    13 x     5 x    29              9952800       0.0%    100.0%      0.0%
 flops     5 x    13 x    29              9952800       0.0%    100.0%      0.0%
 flops    28 x    29 x    13             11653824       0.0%    100.0%      0.0%
 flops    29 x    29 x    13             11676444       0.0%    100.0%      0.0%
 flops    29 x    29 x    29             12682280       0.0%    100.0%      0.0%
 flops    36 x    29 x    29             13442544       0.0%    100.0%      0.0%
 flops     5 x    29 x     5             17895900       0.0%    100.0%      0.0%
 flops    31 x    29 x    13             19353672       0.0%    100.0%      0.0%
 flops    28 x    29 x    29             20910624       0.0%    100.0%      0.0%
 flops    36 x    29 x    18             24204096       0.0%    100.0%      0.0%
 flops    13 x    13 x    29             25877280       0.0%    100.0%      0.0%
 flops    31 x    29 x    29             34726572       0.0%    100.0%      0.0%
 flops    28 x    29 x    18             37650816       0.0%    100.0%      0.0%
 flops    29 x    29 x    18             37723896       0.0%    100.0%      0.0%
 flops    13 x    29 x     5             42299400       0.0%    100.0%      0.0%
 flops     5 x    29 x    13             42299400       0.0%    100.0%      0.0%
 flops    31 x    29 x    18             62527248       0.0%    100.0%      0.0%
 flops    13 x    29 x    13             99980400       0.0%    100.0%      0.0%
 flops inhomo. stacks                           0       0.0%      0.0%      0.0%
 flops total                       572.626460E+06       0.0%    100.0%      0.0%
 flops max/rank                    157.353420E+06       0.0%    100.0%      0.0%
 matmuls inhomo. stacks                         0       0.0%      0.0%      0.0%
 matmuls total                              66422       0.0%    100.0%      0.0%
 number of processed stacks                 41000       0.0%    100.0%      0.0%
 average stack size                                     0.0       1.6       0.0
 marketing flops                   618.156736E+06
 -------------------------------------------------------------------------------
 # multiplications                            904
 max memory usage/rank             856.178688E+06
 # max total images/rank                        2
 # max 3D layers                                1
 # MPI messages exchanged                 1366848
 MPI messages size (bytes):
  total size                       921.387520E+06
  min size                           0.000000E+00
  max size                           8.352000E+03
  average size                     674.096558E+00
 MPI breakdown and total messages size (bytes):
             size <=      128             1141414                        0
       128 < size <=     8192              222464                896582080
      8192 < size <=    32768                2970                 24805440
     32768 < size <=   131072                   0                        0
    131072 < size <=  4194304                   0                        0
   4194304 < size <= 16777216                   0                        0
  16777216 < size                               0                        0
 -------------------------------------------------------------------------------

 *** WARNING in dbcsr_mm.F:294 :: Using a non-square number of MPI ranks ***
 *** might lead to poor performance. Used ranks: 72 Suggested: 64 144    ***

 -------------------------------------------------------------------------------
 -                                                                             -
 -                      DBCSR MESSAGE PASSING PERFORMANCE                      -
 -                                                                             -
 -------------------------------------------------------------------------------
 ROUTINE             CALLS      AVE VOLUME [Bytes]
 MP_Bcast               25                     12.
 MP_Allreduce         4916                      8.
 MP_Alltoall          2933                   7103.
 MP_ISend            42324                   1001.
 MP_IRecv            41872                    780.
 -------------------------------------------------------------------------------

 -------------------------------------------------------------------------------
 -                                                                             -
 -                                GRID STATISTICS                              -
 -                                                                             -
 -------------------------------------------------------------------------------
 LP    KERNEL             BACKEND                              COUNT     PERCENT
 3     collocate ortho    REF                                 229954      22.92%
 3     integrate ortho    REF                                 227084      22.64%
 2     collocate ortho    REF                                 163910      16.34%
 2     integrate ortho    REF                                 156782      15.63%
 4     integrate ortho    REF                                 110123      10.98%
 4     collocate ortho    REF                                 104680      10.44%
 5     integrate ortho    REF                                   4555       0.45%
 0     collocate general  REF                                   3024       0.30%
 1     integrate general  REF                                   3024       0.30%
 -------------------------------------------------------------------------------

 MEMORY| Estimated peak process memory [MiB]                                 904

 -------------------------------------------------------------------------------
 -                                                                             -
 -                         MESSAGE PASSING PERFORMANCE                         -
 -                                                                             -
 -------------------------------------------------------------------------------

 ROUTINE             CALLS      AVE VOLUME [Bytes]
 MP_Group                8
 MP_Bcast             8554               10556430.
 MP_Allreduce         1343                 283759.
 MP_Sync                11
 MP_Alltoall           916                5144919.
 MP_ISendRecv        13064                  14580.
 MP_Wait             20006
 MP_comm_split           4
 MP_ISend             6066                 210772.
 MP_IRecv             6064                 210722.
 MP_Recv                27                   4440.
 -------------------------------------------------------------------------------


 -------------------------------------------------------------------------------
 -                                                                             -
 -                           R E F E R E N C E S                               -
 -                                                                             -
 -------------------------------------------------------------------------------
 
 CP2K version 8.1, the CP2K developers group (2020).
 CP2K is freely available from https://www.cp2k.org/ .

 Kuehne,Thomas D.; Iannuzzi,Marcella; Del Ben,Mauro;
 Rybkin,Vladimir V.; Seewald,Patrick; Stein,Frederick; Laino,Teodoro;
 Khaliullin,Rustam Z.; Schuett,Ole; Schiffmann,Florian; Golze,Dorothea;
 Wilhelm,Jan; Chulkov,Sergey; Bani-Hashemian,Mohammad Hossein;
 Weber,Valery; Borstnik,Urban; Taillefumier,Mathieu;
 Jakobovits,Alice Shoshana; Lazzaro,Alfio; Pabst,Hans; Mueller,Tiziano;
 Schade,Robert; Guidon,Manuel; Andermatt,Samuel; Holmberg,Nico;
 Schenter,Gregory K.; Hehn,Anna; Bussy,Augustin; Belleflamme,Fabian;
 Tabacchi,Gloria; Gloess,Andreas; Lass,Michael; Bethune,Iain;
 Mundy,Christopher J.; Plessl,Christian; Watkins,Matt;
 VandeVondele,Joost; Krack,Matthias; Hutter,Juerg. 
 The Journal of Chemical Physics, 152 (19), (2020). 
 CP2K: An electronic structure and molecular dynamics software package -
 Quickstep: Efficient and accurate electronic structure calculations.
 https://doi.org/10.1063/5.0007045

 Schuett, Ole; Messmer, Peter; Hutter, Juerg; VandeVondele, Joost. 
 Electronic Structure Calculations on Graphics Processing Units, John
 Wiley & Sons, Ltd, 173-190 (2016). 
 GPU-Accelerated Sparse Matrix-Matrix Multiplication for
 Linear Scaling Density Functional Theory.
 https://doi.org/10.1002/9781118670712.ch8

 Borstnik, U; VandeVondele, J; Weber, V; Hutter, J. 
 PARALLEL COMPUTING, 40 (5-6), 47-58 (2014). 
 Sparse matrix multiplication: The distributed block-compressed sparse
 row library.
 https://doi.org/10.1016/j.parco.2014.03.012

 Hutter, J; Iannuzzi, M; Schiffmann, F; VandeVondele, J. 
 WIREs Comput Mol Sci., 4 (1), 15-25 (2014). 
 CP2K: atomistic simulations of condensed matter systems.
 https://doi.org/10.1002/wcms.1159

 Marek, A; Blum, V; Johanni, R; Havu, V; Lang, B; Auckenthaler, T;
 Heinecke, A; Bungartz, H; Lederer, H. 
 Journal of Physics: Condensed Matter, 26 (21), (2014). 
 The ELPA library: scalable parallel eigenvalue solutions for
 electronic structure
 theory and computational science.
 https://doi.org/10.1088/0953-8984/26/21/213201

 VandeVondele, J; Hutter, J. 
 JOURNAL OF CHEMICAL PHYSICS, 127 (11), 114105 (2007). 
 Gaussian basis sets for accurate calculations on molecular systems in
 gas and condensed phases.
 https://doi.org/10.1063/1.2770708

 Kuhne, TD; Krack, M; Mohamed, FR; Parrinello, M. 
 PHYSICAL REVIEW LETTERS, 98 (6), 066401 (2007). 
 Efficient and accurate Car-Parrinello-like approach to
 Born-Oppenheimer molecular dynamics.
 https://doi.org/10.1103/PhysRevLett.98.066401

 Laino, T; Mohamed, F; Laio, A; Parrinello, M. 
 JOURNAL OF CHEMICAL THEORY AND COMPUTATION, 2 (5), 1370-1378 (2006). 
 An efficient linear-scaling electrostatic coupling for treating
 periodic boundary conditions in QM/MM simulations.
 https://doi.org/10.1021/ct6001169

 Laino, T; Mohamed, F; Laio, A; Parrinello, M. 
 JOURNAL OF CHEMICAL THEORY AND COMPUTATION, 1 (6), 1176-1184 (2005). 
 An efficient real space multigrid QM/MM electrostatic coupling.
 https://doi.org/10.1021/ct050123f

 Krack, M. 
 THEORETICAL CHEMISTRY ACCOUNTS, 114 (1-3), 145-152 (2005). 
 Pseudopotentials for H to Kr optimized for gradient-corrected
 exchange-correlation functionals.
 https://doi.org/10.1007/s00214-005-0655-y

 VandeVondele, J; Krack, M; Mohamed, F; Parrinello, M; Chassaing, T;
 Hutter, J. COMPUTER PHYSICS COMMUNICATIONS, 167 (2), 103-128 (2005). 
 QUICKSTEP: Fast and accurate density functional calculations using a
 mixed Gaussian and plane waves approach.
 https://doi.org/10.1016/j.cpc.2004.12.014

 Frigo, M; Johnson, SG. 
 PROCEEDINGS OF THE IEEE, 93 (2), 216-231 (2005). 
 The design and implementation of FFTW3.
 https://doi.org/10.1109/JPROC.2004.840301

 Kolafa, J. 
 JOURNAL OF COMPUTATIONAL CHEMISTRY, 25 (3), 335-342 (2004). 
 Time-reversible always stable predictor-corrector method for molecular dynamics of polarizable molecules.
 https://doi.org/10.1002/jcc.10385

 VandeVondele, J; Hutter, J. 
 JOURNAL OF CHEMICAL PHYSICS, 118 (10), 4365-4369 (2003). 
 An efficient orbital transformation method for electronic structure
 calculations.
 https://doi.org/10.1063/1.1543154

 Hartwigsen, C; Goedecker, S; Hutter, J. 
 PHYSICAL REVIEW B, 58 (7), 3641-3662 (1998). 
 Relativistic separable dual-space Gaussian pseudopotentials from H to Rn.
 https://doi.org/10.1103/PhysRevB.58.3641

 Lippert, G; Hutter, J; Parrinello, M. 
 MOLECULAR PHYSICS, 92 (3), 477-487 (1997). 
 A hybrid Gaussian and plane wave density functional scheme.
 https://doi.org/10.1080/002689797170220

 Goedecker, S; Teter, M; Hutter, J. 
 PHYSICAL REVIEW B, 54 (3), 1703-1710 (1996). 
 Separable dual-space Gaussian pseudopotentials.
 https://doi.org/10.1103/PhysRevB.54.1703

 ESSMANN, U; PERERA, L; BERKOWITZ, ML; DARDEN, T; LEE, H; PEDERSEN, LG. 
 JOURNAL OF CHEMICAL PHYSICS, 103 (19), 8577-8593 (1995). 
 A SMOOTH PARTICLE MESH EWALD METHOD.
 https://doi.org/10.1063/1.470117

 BLOCHL, PE. 
 JOURNAL OF CHEMICAL PHYSICS, 103 (17), 7422-7428 (1995). 
 ELECTROSTATIC DECOUPLING OF PERIODIC IMAGES OF PLANE-WAVE-EXPANDED
 DENSITIES AND DERIVED ATOMIC POINT CHARGES.
 https://doi.org/10.1063/1.470314

 BECKE, AD. PHYSICAL REVIEW A, 38 (6), 3098-3100 (1988). 
 DENSITY-FUNCTIONAL EXCHANGE-ENERGY APPROXIMATION WITH CORRECT
 ASYMPTOTIC-BEHAVIOR.
 https://doi.org/10.1103/PhysRevA.38.3098

 LEE, CT; YANG, WT; PARR, RG. 
 PHYSICAL REVIEW B, 37 (2), 785-789 (1988). 
 DEVELOPMENT OF THE COLLE-SALVETTI CORRELATION-ENERGY FORMULA INTO A
 FUNCTIONAL OF THE ELECTRON-DENSITY.
 https://doi.org/10.1103/PhysRevB.37.785


 -------------------------------------------------------------------------------
 -                                                                             -
 -                                T I M I N G                                  -
 -                                                                             -
 -------------------------------------------------------------------------------
 SUBROUTINE                       CALLS  ASD         SELF TIME        TOTAL TIME
                                MAXIMUM       AVERAGE  MAXIMUM  AVERAGE  MAXIMUM
 CP2K                                 1  1.0    0.305    0.321  154.015  154.016
 qmmm_env_create                      1  2.0   13.280   14.106   77.698   77.705
 qs_mol_dyn_low                       1  2.0    0.015    0.016   71.400   75.996
 fist_init                            1  3.0    0.000    0.000   59.904   59.905
 velocity_verlet                      1  3.0    0.014    0.014   45.625   45.636
 force_field_control                  1  4.0    0.000    0.000   36.283   37.511
 rdparm_amber_8                       2  6.5   27.991   29.642   34.482   34.575
 qs_forces                            2  3.5    0.000    0.001   30.737   30.744
 qs_energies                          2  4.5    0.000    0.000   29.675   29.683
 scf_env_do_scf                       2  5.5    0.000    0.000   29.111   29.111
 scf_env_do_scf_inner_loop           44  6.9    0.001    0.003   27.818   28.087
 topology_control                     1  4.0    0.000    0.000   22.290   22.911
 rebuild_ks_matrix                   46  8.7    0.000    0.000   21.201   21.206
 qs_ks_build_kohn_sham_matrix        46  9.7    0.007    0.008   21.200   21.206
 qmmm_forces                          2  3.5    0.024    0.025   21.133   21.135
 qmmm_forces_with_gaussian            2  4.5    0.008    0.009   20.553   20.992
 qs_ks_update_qs_env                 46  7.9    0.000    0.000   20.168   20.173
 force_field_pack                     1  5.0    0.010    0.012   18.437   19.791
 connectivity_control                 2  4.0    0.000    0.001   17.765   18.455
 read_force_field_amber               1  5.0    0.006    0.007   17.748   17.850
 read_connectivity_amber              1  6.0    0.000    0.000   16.740   16.748
 pw_transfer                        942 12.4    0.059    0.068   15.349   15.522
 qmmm_el_coupling                     2  3.5    0.000    0.000   15.235   15.306
 qmmm_elec_with_gaussian              2  4.5    0.003    0.004   15.234   15.305
 fft_wrap_pw1pw2                    794 13.4    0.009    0.009   15.047   15.218
 fft_wrap_pw1pw2_200                510 14.6    1.159    1.214   14.621   14.784
 qmmm_force_with_gaussian_low         2  5.5    0.000    0.000   14.163   14.516
 force_field_pack_ub                  1  6.0   11.640   13.502   11.640   13.502
 fft3d_ps                           794 15.4    6.203    6.319   12.106   12.387
 qmmm_forces_gaussian_low_R           2  6.5    0.000    0.000   11.899   12.009
 qmmm_forces_with_gaussian_LG         2  7.5   11.899   12.009   11.899   12.009
 qs_vxc_create                       46 10.7    0.001    0.001   11.888   11.891
 xc_vxc_pw_create                    46 11.7    0.150    0.197   11.887   11.889
 qmmm_elec_with_gaussian_low          2  5.5    0.000    0.000    9.114    9.584
 qmmm_elec_gaussian_low_R             2  6.5    0.000    0.000    8.086    8.278
 qmmm_elec_with_gaussian_LG           2  7.5    8.086    8.278    8.086    8.278
 qs_rho_update_rho                   46  7.9    0.000    0.000    7.952    7.954
 calculate_rho_elec                  46  8.9    0.031    0.033    7.952    7.954
 rs_pw_transfer                     380 12.1    0.006    0.007    6.728    7.137
 density_rs2pw                       46  9.9    0.003    0.003    6.387    6.797
 sum_up_and_integrate                46 10.7    0.037    0.038    6.738    6.744
 integrate_v_rspace                  46 11.7    0.001    0.002    6.702    6.707
 mp_sum_dm3                          13  5.2    5.591    5.894    5.591    5.894
 xc_rho_set_and_dset_create          46 12.7    0.440    0.458    5.793    5.864
 md_output                            1  3.0    0.000    0.000    1.037    5.633
 pw_restrict_s3                       6  5.5    2.114    2.148    5.358    5.441
 parser_read_line               1179731  7.6    0.323    0.368    4.234    5.155
 write_restart                        1  4.0    0.056    4.046    1.029    5.071
 mp_alltoall_z22v                   794 17.4    4.701    4.934    4.701    4.934
 parser_read_line_low              1188  8.6    0.353    1.458    3.911    4.874
 potential_pw2rs                     46 12.7    0.003    0.004    4.735    4.741
 mp_max_l                            22  1.8    4.506    4.594    4.506    4.594
 broadcast_input_information       1188  9.6    0.006    0.006    3.558    4.541
 force_field_pack_splines             2  6.0    0.012    0.015    4.196    4.352
 qmmm_elec_with_gaussian:spline       2  5.5    0.000    0.000    4.085    4.154
 pw_prolongate_s3                     6  6.5    1.604    1.626    4.085    4.154
 get_nonbond_storage                  2  7.0    0.125    0.137    3.897    4.054
 pw_integral_ab                     974  7.4    3.872    3.977    3.901    4.007
 set_potparm_index                  508  8.0    0.190    0.196    3.773    3.933
 init_genpot                        510  9.0    3.593    3.742    3.593    3.742
 eval_pw_TabLR                        3  3.0    0.637    3.402    3.588    3.592
 grid_collocate_task_list            46  9.9    1.508    3.492    1.508    3.492
 x_to_yz                            422 16.9    0.700    0.738    3.192    3.261
 mp_comm_dup                         21  5.0    2.157    3.198    2.157    3.198
 mp_waitany                        6064 14.0    2.635    3.162    2.635    3.162
 -------------------------------------------------------------------------------

 The number of warnings for this run is : 1
 
 -------------------------------------------------------------------------------
  **** **** ******  **  PROGRAM ENDED AT                 2021-02-24 10:18:45.243
 ***** ** ***  *** **   PROGRAM RAN ON                                   r1i1n10
 **    ****   ******    PROGRAM RAN BY                                    hollyj
 ***** **    ** ** **   PROGRAM PROCESS ID                                 43837
  **** **  *******  **  PROGRAM STOPPED IN /lustre/home/w68/hollyj/CP2K/Cirrus/C
                                           PU/cp2kMD/ClC-19/1STEPS/2NODES/36CPN/
                                           1THREADS
