 DBCSR| CPU Multiplication driver                                           XSMM
 DBCSR| Multrec recursion limit                                              512
 DBCSR| Multiplication stack size                                           1000
 DBCSR| Maximum elements for images                                    UNLIMITED
 DBCSR| Multiplicative factor virtual images                                   1
 DBCSR| Use multiplication densification                                       T
 DBCSR| Multiplication size stacks                                             3
 DBCSR| Use memory pool for CPU allocation                                     F
 DBCSR| Number of 3D layers                                               SINGLE
 DBCSR| Use MPI memory allocation                                              F
 DBCSR| Use RMA algorithm                                                      F
 DBCSR| Use Communication thread                                               T
 DBCSR| Communication thread load                                             68
 DBCSR| MPI: My node id                                                        0
 DBCSR| MPI: Number of nodes                                                   6
 DBCSR| OMP: Current number of threads                                         6
 DBCSR| OMP: Max number of threads                                             6
 DBCSR| Split modifier for TAS multiplication algorithm                  1.0E+00


  **** **** ******  **  PROGRAM STARTED AT               2021-02-26 13:03:51.424
 ***** ** ***  *** **   PROGRAM STARTED ON                               r1i2n22
 **    ****   ******    PROGRAM STARTED BY                                hollyj
 ***** **    ** ** **   PROGRAM PROCESS ID                                 24531
  **** **  *******  **  PROGRAM STARTED IN /lustre/home/w68/hollyj/CP2K/Cirrus/C
                                           PU/cp2kMD/CBD_PHY/6STEPS/1NODES/36CPN
                                           /6THREADS

 CP2K| version string:                                          CP2K version 8.1
 CP2K| source code revision number:                                  git:0b61f2f
 CP2K| cp2kflags: omp libint fftw3 libxc elpa parallel mpi3 scalapack xsmm spgli
 CP2K|            b mkl
 CP2K| is freely available from                            https://www.cp2k.org/
 CP2K| Program compiled at                           Mon Feb 1 13:14:42 GMT 2021
 CP2K| Program compiled on                                         cirrus-login1
 CP2K| Program compiled for                                           Cirrus-gcc
 CP2K| Data directory path       /lustre/home/w68/hollyj/CP2K/v8.1/cp2k-8.1/data
 CP2K| Input file name                                          CBD_PHY-cp2k.inp

 GLOBAL| Force Environment number                                              1
 GLOBAL| Basis set file name                                        BASIS_MOLOPT
 GLOBAL| Potential file name                                           POTENTIAL
 GLOBAL| MM Potential file name                                     MM_POTENTIAL
 GLOBAL| Coordinate file name                                        CBD_PHY.pdb
 GLOBAL| Method name                                                        CP2K
 GLOBAL| Project name                                                CBD_PHY-PBE
 GLOBAL| Preferred FFT library                                             FFTW3
 GLOBAL| Preferred diagonalization lib.                                     ELPA
 GLOBAL| Run type                                                             MD
 GLOBAL| All-to-all communication in single precision                          F
 GLOBAL| FFTs using library dependent lengths                                  F
 GLOBAL| Global print level                                                  LOW
 GLOBAL| MPI I/O enabled                                                       T
 GLOBAL| Total number of message passing processes                             6
 GLOBAL| Number of threads for this process                                    6
 GLOBAL| This output is from process                                           0
 GLOBAL| CPU model name                Intel(R) Xeon(R) CPU E5-2695 v4 @ 2.10GHz
 GLOBAL| CPUID                                                              1002
 GLOBAL| Compiled for CPUID                                                 1001

 *** HINT in environment.F:802 :: The compiler target flags (x86_avx) used ***
 *** to build this binary cannot exploit all extensions of this CPU model  ***
 *** (x86_avx2). Consider compiler target flags as part of FCFLAGS and     ***
 *** CFLAGS (ARCH file).                                                   ***


 MEMORY| system memory details [Kb]
 MEMORY|                        rank 0           min           max       average
 MEMORY| MemTotal            263692180     263692180     263692180     263692180
 MEMORY| MemFree             259880756     259880756     259880756     259880756
 MEMORY| Buffers                     0             0             0             0
 MEMORY| Cached                1067296       1067296       1067296       1067296
 MEMORY| Slab                   950552        950552        950552        950552
 MEMORY| SReclaimable           242124        242124        242124        242124
 MEMORY| MemLikelyFree       261190176     261190176     261190176     261190176



                      ************* ******** ***********   
                     ************* **********************  
                     ****     **** ****      ***********   
                     ******** ****  *******     ****       
                     *******  ****   *******   ****        
                     ****     ****       ****  ****        
                     ****     **** **********  ****        
                      ****     **** ********    ****       
                     FRONTIERS IN SIMULATION TECHNOLOGY    
                                                           
                        C.J. Mundy, S. Balasubramanian,    
                     Ken Bagchi, J. Hutter, Ari Seitsonen  
                      IFW Kuo, T. Laino, J. VandeVondele   
                                 Version 1.0               

                                                           


 EWALD| Summation is done by:                                               SPME
 EWALD| Alpha parameter [       ANGSTROM^-1]                              0.4000
 EWALD| Real Space Cutoff [          ANGSTROM]                            8.4348
 EWALD| G-space max. Miller index                         80        80        80
 EWALD| Spline interpolation order                                             6

 FORCEFIELD| WARNING: A non Critical ForceField parameter is missing! CP2K GOES!
 FORCEFIELD| Non critical parameters are:Urey-Bradley,Torsions,Impropers, Opbends and 1-4
 FORCEFIELD| All missing parameters will not contribute to the potential energy!
 FORCEFIELD| Activate the print key FF_INFO to have a list of missing parameters

 CHARGE_INFO| Total Charge of the Classical System:                    -0.825808

 SPLINE_INFO| Generating 101926 splines for NONBONDED14 interactions 
              Due to 451 different atomic kinds
  ...10192  ...20384  ...30576  ...40768  ...50960  ...61152  ...71344  ...81536  ...91728  ...101920
 SPLINE_INFO| Number of unique splines computed:            301
 SPLINE_INFO| Done

 SPLINE_INFO| Generating 101926 splines for NONBONDED interactions 
              Due to 451 different atomic kinds
  ...10192  ...20384  ...30576  ...40768  ...50960  ...61152  ...71344  ...81536  ...91728  ...101920
 SPLINE_INFO| Number of unique splines computed:            301
 SPLINE_INFO| Done

 *******************************************************************************
 *******************************************************************************
 **                                                                           **
 **     #####                         ##              ##                      **
 **    ##   ##            ##          ##              ##                      **
 **   ##     ##                       ##            ######                    **
 **   ##     ##  ##   ##  ##   #####  ##  ##   ####   ##    #####    #####    **
 **   ##     ##  ##   ##  ##  ##      ## ##   ##      ##   ##   ##  ##   ##   **
 **   ##  ## ##  ##   ##  ##  ##      ####     ###    ##   ######   ######    **
 **    ##  ###   ##   ##  ##  ##      ## ##      ##   ##   ##       ##        **
 **     #######   #####   ##   #####  ##  ##  ####    ##    #####   ##        **
 **           ##                                                    ##        **
 **                                                                           **
 **                                                ... make the atoms dance   **
 **                                                                           **
 **            Copyright (C) by CP2K developers group (2000 - 2020)           **
 **                      J. Chem. Phys. 152, 194103 (2020)                    **
 **                                                                           **
 *******************************************************************************


 TOTAL NUMBERS AND MAXIMUM NUMBERS

  Total number of            - Atomic kinds:                                   5
                             - Atoms:                                         68
                             - Shell sets:                                    68
                             - Shells:                                       274
                             - Primitive Cartesian functions:                476
                             - Cartesian basis functions:                    655
                             - Spherical basis functions:                    620

  Maximum angular momentum of- Orbital basis functions:                        2
                             - Local part of the GTH pseudopotential:          2
                             - Non-local part of the GTH pseudopotential:      0


 SCF PARAMETERS         Density guess:                                   RESTART
                        --------------------------------------------------------
                        max_scf:                                             300
                        max_scf_history:                                       0
                        max_diis:                                              4
                        --------------------------------------------------------
                        eps_scf:                                        1.00E-06
                        eps_scf_history:                                0.00E+00
                        eps_diis:                                       1.00E-01
                        eps_eigval:                                     1.00E-05
                        --------------------------------------------------------
                        level_shift [a.u.]:                                 0.00
                        --------------------------------------------------------
                        No outer SCF

 *******************************************************************************
 *******************************************************************************
 **                                                                           **
 **             #######  ##     ## ##     ## ##     ##                        **
 **            ##     ## ###   ### ###   ### ###   ###                        **
 **            ##     ## #### #### #### #### #### ####                        **
 **            ##     ## ## ### ## ## ### ## ## ### ##                        **
 **            ##  ## ## ##     ## ##     ## ##     ##                        **
 **            ##    ##  ##     ## ##     ## ##     ##  T.Laino and F.Mohamed **
 **             ##### ## ##     ## ##     ## ##     ##  2005 - 2015           **
 **                                                                           **
 **                                                     Calculation Started.. **
 *******************************************************************************
 *******************************************************************************

 MD_PAR| Molecular dynamics protocol (MD input parameters)
 MD_PAR| Ensemble type                                                       NVE
 MD_PAR| Number of time steps                                                  6
 MD_PAR| Time step [fs]                                                 1.000000
 MD_PAR| Temperature [K]                                              300.000000
 MD_PAR| Temperature tolerance [K]                                      0.000000
 MD_PAR| Print MD information every                                    1 step(s)
 MD_PAR| File type   Print frequency [steps]                          File names
 MD_PAR| Coordinates          1                                CBD_PHY-pos-1.xyz
 MD_PAR| Velocities           1                                CBD_PHY-vel-1.xyz
 MD_PAR| Energies             1                                   CBD_PHY-1.ener
 MD_PAR| Dump                20                                CBD_PHY-1.restart

 ROT| Rotational analysis information
 ROT| Principal axes and moments of inertia [a.u.]
 ROT|                           1                   2                   3
 ROT| Eigenvalues      1.56283164001E+13   1.56407408488E+13   1.56663418804E+13
 ROT|      x              0.901637047331     -0.018153263569      0.432112362589
 ROT|      y              0.323714777231      0.690893927917     -0.646431994389
 ROT|      z             -0.286808957117      0.722728191915      0.628812040859
 ROT| Number of rotovibrational vectors                                        6

 DOF| Calculation of degrees of freedom
 DOF| Number of atoms                                                     167923
 DOF| Number of intramolecular constraints                                     0
 DOF| Number of intermolecular constraints                                     0
 DOF| Invariants (translations + rotations)                                    3
 DOF| Degrees of freedom                                                  503766

 DOF| Restraints information
 DOF| Number of intramolecular restraints                                      0
 DOF| Number of intermolecular restraints                                      0

 MD_VEL| Velocities initialization
 MD_VEL| Initial temperature [K]                                      300.000000
 MD_VEL| COM velocity            -0.0000000000     0.0000000000     0.0000000000

  Translating the system in order to center the QM fragment in the QM box.

 Number of electrons:                                                        180
 Number of occupied orbitals:                                                 90
 Number of molecular orbitals:                                                90

 Number of orbital functions:                                                620
 Number of independent orbital functions:                                    620

 Extrapolation method: initial_guess


 SCF WAVEFUNCTION OPTIMIZATION

  ----------------------------------- OT ---------------------------------------
  Minimizer      : DIIS                : direct inversion
                                         in the iterative subspace
                                         using   7 DIIS vectors
                                         safer DIIS on
  Preconditioner : FULL_ALL            : diagonalization, state selective
  Precond_solver : DEFAULT
  stepsize       :    0.15000000                  energy_gap     :    0.08000000
  eps_taylor     :   0.10000E-15                  max_taylor     :             4
  ----------------------------------- OT ---------------------------------------

  Step     Update method      Time    Convergence         Total energy    Change
  ------------------------------------------------------------------------------
  Decoupling Energy:                                               0.0370860464
  Recoupling Energy:                                              -0.0063743249
     1 OT DIIS     0.15E+00    3.5     0.00000956      -256.0303948149 -2.56E+02
  Decoupling Energy:                                               0.0370861672
  Recoupling Energy:                                              -0.0063743255
     2 OT DIIS     0.15E+00    4.4     0.00000478      -256.0303953083 -4.93E-07
  Decoupling Energy:                                               0.0370856321
  Recoupling Energy:                                              -0.0063743196
     3 OT DIIS     0.15E+00    4.4     0.00000528      -256.0303953640 -5.57E-08
  Decoupling Energy:                                               0.0370861329
  Recoupling Energy:                                              -0.0063743252
     4 OT DIIS     0.15E+00    4.4     0.00000149      -256.0303954147 -5.07E-08
  Decoupling Energy:                                               0.0370859327
  Recoupling Energy:                                              -0.0063743228
     5 OT DIIS     0.15E+00    4.4     0.00000020      -256.0303954184 -3.64E-09

  *** SCF run converged in     5 steps ***


  Electronic density on regular grids:       -179.9999999994        0.0000000006
  Core density on regular grids:              180.9999999999       -0.0000000001
  Total charge density on r-space grids:        1.0000000005
  Total charge density g-space grids:           1.0000000005

  Overlap energy of the core charge distribution:               0.00001951532734
  Self energy of the core charge distribution:               -615.71576003586028
  Core Hamiltonian energy:                                    191.69815017913729
  Hartree energy:                                             247.57404818331707
  Exchange-correlation energy:                                -79.63275540309549
  QM/MM Electrostatic energy:                                   0.04590214281616

  Total energy:                                              -256.03039541835784
  Decoupling Energy:                                               0.0370859742
  Recoupling Energy:                                              -0.0063743233

 ENERGY| Total FORCE_EVAL ( QMMM ) energy [a.u.]:          -1088.195362350142659

 MD_INI| MD initialization
 MD_INI| Potential energy [hartree]                          -0.108819536235E+04
 MD_INI| Total kinetic energy [hartree]                       0.239300084734E+03
 MD_INI| QM kinetic energy [hartree]                          0.106639360339E+00
 MD_INI| Total temperature [K]                                        300.000000
 MD_INI| QM temperature [K]                                           330.137318
 MD_INI| Cell volume [bohr^3]                                 1.137316355424E+07
 MD_INI| Cell volume [ang^3]                                  1.685328937712E+06
 MD_INI| Cell lengths [bohr]      2.24884969E+02  2.24884969E+02  2.24884969E+02
 MD_INI| Cell lengths [ang]       1.19004000E+02  1.19004000E+02  1.19004000E+02
 MD_INI| Cell angles [deg]        9.00000000E+01  9.00000000E+01  9.00000000E+01

  Translating the system in order to center the QM fragment in the QM box.

 Number of electrons:                                                        180
 Number of occupied orbitals:                                                 90
 Number of molecular orbitals:                                                90

 Number of orbital functions:                                                620
 Number of independent orbital functions:                                    620

 Extrapolation method: ASPC


 SCF WAVEFUNCTION OPTIMIZATION

  ----------------------------------- OT ---------------------------------------
  Minimizer      : DIIS                : direct inversion
                                         in the iterative subspace
                                         using   7 DIIS vectors
                                         safer DIIS on
  Preconditioner : FULL_ALL            : diagonalization, state selective
  Precond_solver : DEFAULT
  stepsize       :    0.15000000                  energy_gap     :    0.08000000
  eps_taylor     :   0.10000E-15                  max_taylor     :             4
  ----------------------------------- OT ---------------------------------------

  Step     Update method      Time    Convergence         Total energy    Change
  ------------------------------------------------------------------------------
  Decoupling Energy:                                               0.0371104022
  Recoupling Energy:                                              -0.0063745549
     1 OT DIIS     0.15E+00    3.3     0.00092537      -255.8029313662 -2.56E+02
  Decoupling Energy:                                               0.0371210912
  Recoupling Energy:                                              -0.0063746935
     2 OT DIIS     0.15E+00    4.4     0.00041587      -255.8072240307 -4.29E-03
  Decoupling Energy:                                               0.0371277539
  Recoupling Energy:                                              -0.0063747955
     3 OT DIIS     0.15E+00    4.4     0.00037228      -255.8077199025 -4.96E-04
  Decoupling Energy:                                               0.0371212858
  Recoupling Energy:                                              -0.0063746999
     4 OT DIIS     0.15E+00    4.4     0.00014957      -255.8079919834 -2.72E-04
  Decoupling Energy:                                               0.0371369486
  Recoupling Energy:                                              -0.0063748859
     5 OT DIIS     0.15E+00    4.4     0.00004923      -255.8080296608 -3.77E-05
  Decoupling Energy:                                               0.0371276795
  Recoupling Energy:                                              -0.0063747811
     6 OT DIIS     0.15E+00    4.4     0.00001779      -255.8080336534 -3.99E-06
  Decoupling Energy:                                               0.0371313106
  Recoupling Energy:                                              -0.0063748226
     7 OT DIIS     0.15E+00    4.4     0.00000735      -255.8080342017 -5.48E-07
  Decoupling Energy:                                               0.0371301428
  Recoupling Energy:                                              -0.0063748095
     8 OT DIIS     0.15E+00    4.4     0.00000183      -255.8080343029 -1.01E-07
  Decoupling Energy:                                               0.0371306206
  Recoupling Energy:                                              -0.0063748146
     9 OT DIIS     0.15E+00    4.4     0.00000127      -255.8080343087 -5.75E-09
  Decoupling Energy:                                               0.0371304192
  Recoupling Energy:                                              -0.0063748125
    10 OT DIIS     0.15E+00    4.4     0.00000040      -255.8080343115 -2.80E-09

  *** SCF run converged in    10 steps ***


  Electronic density on regular grids:       -180.0000000001       -0.0000000001
  Core density on regular grids:              180.9999999999       -0.0000000001
  Total charge density on r-space grids:        0.9999999998
  Total charge density g-space grids:           0.9999999998

  Overlap energy of the core charge distribution:               0.00002367605264
  Self energy of the core charge distribution:               -615.71576003586028
  Core Hamiltonian energy:                                    191.83715151664779
  Hartree energy:                                             247.48551244245147
  Exchange-correlation energy:                                -79.67126388748039
  QM/MM Electrostatic energy:                                   0.25630197668705

  Total energy:                                              -255.80803431150179
  Decoupling Energy:                                               0.0371304353
  Recoupling Energy:                                              -0.0063748127

 ENERGY| Total FORCE_EVAL ( QMMM ) energy [a.u.]:          -1060.045711407956787

 MD| ***************************************************************************
 MD| Step number                                                               1
 MD| Time [fs]                                                          1.000000
 MD| Conserved quantity [hartree]                            -0.841545612461E+03
 MD| ---------------------------------------------------------------------------
 MD|                                          Instantaneous             Averages
 MD| CPU time per MD step [s]                    313.174379           313.174379
 MD| Energy drift per atom [K]           0.138208460225E+02   0.000000000000E+00
 MD| Potential energy [hartree]         -0.106004571141E+04  -0.106004571141E+04
 MD| Total kinetic energy [hartree]      0.218500098947E+03   0.218500098947E+03
 MD| QM kinetic energy [hartree]         0.120537396472E+00   0.120537396472E+00
 MD| Total temperature [K]                       273.923972           273.923972
 MD| QM temperature [K]                          373.163274           373.163274
 MD| ***************************************************************************

  Translating the system in order to center the QM fragment in the QM box.

 Number of electrons:                                                        180
 Number of occupied orbitals:                                                 90
 Number of molecular orbitals:                                                90

 Number of orbital functions:                                                620
 Number of independent orbital functions:                                    620

 Extrapolation method: ASPC


 SCF WAVEFUNCTION OPTIMIZATION

  ----------------------------------- OT ---------------------------------------
  Minimizer      : DIIS                : direct inversion
                                         in the iterative subspace
                                         using   7 DIIS vectors
                                         safer DIIS on
  Preconditioner : FULL_ALL            : diagonalization, state selective
  Precond_solver : DEFAULT
  stepsize       :    0.15000000                  energy_gap     :    0.08000000
  eps_taylor     :   0.10000E-15                  max_taylor     :             4
  ----------------------------------- OT ---------------------------------------

  Step     Update method      Time    Convergence         Total energy    Change
  ------------------------------------------------------------------------------
  Decoupling Energy:                                               0.0371782653
  Recoupling Energy:                                              -0.0063753295
     1 OT DIIS     0.15E+00    3.4     0.00034569      -255.4446723116 -2.55E+02
  Decoupling Energy:                                               0.0371762828
  Recoupling Energy:                                              -0.0063753051
     2 OT DIIS     0.15E+00    4.5     0.00014529      -255.4452859433 -6.14E-04
  Decoupling Energy:                                               0.0371731712
  Recoupling Energy:                                              -0.0063752667
     3 OT DIIS     0.15E+00    4.4     0.00012811      -255.4453579843 -7.20E-05
  Decoupling Energy:                                               0.0371770302
  Recoupling Energy:                                              -0.0063753178
     4 OT DIIS     0.15E+00    4.4     0.00005544      -255.4453891742 -3.12E-05
  Decoupling Energy:                                               0.0371727803
  Recoupling Energy:                                              -0.0063752653
     5 OT DIIS     0.15E+00    4.4     0.00001634      -255.4453943041 -5.13E-06
  Decoupling Energy:                                               0.0371753987
  Recoupling Energy:                                              -0.0063752960
     6 OT DIIS     0.15E+00    4.4     0.00000629      -255.4453947541 -4.50E-07
  Decoupling Energy:                                               0.0371743568
  Recoupling Energy:                                              -0.0063752840
     7 OT DIIS     0.15E+00    4.4     0.00000206      -255.4453948287 -7.47E-08
  Decoupling Energy:                                               0.0371747656
  Recoupling Energy:                                              -0.0063752885
     8 OT DIIS     0.15E+00    4.4     0.00000090      -255.4453948359 -7.17E-09

  *** SCF run converged in     8 steps ***


  Electronic density on regular grids:       -180.0000000008       -0.0000000008
  Core density on regular grids:              180.9999999999       -0.0000000001
  Total charge density on r-space grids:        0.9999999990
  Total charge density g-space grids:           0.9999999990

  Overlap energy of the core charge distribution:               0.00004639440475
  Self energy of the core charge distribution:               -615.71576003586028
  Core Hamiltonian energy:                                    191.92051753732986
  Hartree energy:                                             247.45180560938579
  Exchange-correlation energy:                                -79.68728051998229
  QM/MM Electrostatic energy:                                   0.58527617883229

  Total energy:                                              -255.44539483588991
  Decoupling Energy:                                               0.0371745951
  Recoupling Energy:                                              -0.0063752867

 ENERGY| Total FORCE_EVAL ( QMMM ) energy [a.u.]:          -1061.319246077141315

 MD| ***************************************************************************
 MD| Step number                                                               2
 MD| Time [fs]                                                          2.000000
 MD| Conserved quantity [hartree]                            -0.842902035499E+03
 MD| ---------------------------------------------------------------------------
 MD|                                          Instantaneous             Averages
 MD| CPU time per MD step [s]                    159.305639           236.240009
 MD| Energy drift per atom [K]           0.112701292823E+02   0.563506464113E+01
 MD| Potential energy [hartree]         -0.106131924608E+04  -0.106068247874E+04
 MD| Total kinetic energy [hartree]      0.218417210578E+03   0.218458654763E+03
 MD| QM kinetic energy [hartree]         0.111218644654E+00   0.115878020563E+00
 MD| Total temperature [K]                       273.820058           273.872015
 MD| QM temperature [K]                          344.314003           358.738639
 MD| ***************************************************************************

  Translating the system in order to center the QM fragment in the QM box.

 Number of electrons:                                                        180
 Number of occupied orbitals:                                                 90
 Number of molecular orbitals:                                                90

 Number of orbital functions:                                                620
 Number of independent orbital functions:                                    620

 Extrapolation method: ASPC


 SCF WAVEFUNCTION OPTIMIZATION

  ----------------------------------- OT ---------------------------------------
  Minimizer      : DIIS                : direct inversion
                                         in the iterative subspace
                                         using   7 DIIS vectors
                                         safer DIIS on
  Preconditioner : FULL_ALL            : diagonalization, state selective
  Precond_solver : DEFAULT
  stepsize       :    0.15000000                  energy_gap     :    0.08000000
  eps_taylor     :   0.10000E-15                  max_taylor     :             4
  ----------------------------------- OT ---------------------------------------

  Step     Update method      Time    Convergence         Total energy    Change
  ------------------------------------------------------------------------------
  Decoupling Energy:                                               0.0372093684
  Recoupling Energy:                                              -0.0063756581
     1 OT DIIS     0.15E+00    3.4     0.00068288      -254.9647888814 -2.55E+02
  Decoupling Energy:                                               0.0372203242
  Recoupling Energy:                                              -0.0063757651
     2 OT DIIS     0.15E+00    4.4     0.00025903      -254.9670248430 -2.24E-03
  Decoupling Energy:                                               0.0372193629
  Recoupling Energy:                                              -0.0063757535
     3 OT DIIS     0.15E+00    4.4     0.00015274      -254.9672853925 -2.61E-04
  Decoupling Energy:                                               0.0372147281
  Recoupling Energy:                                              -0.0063757082
     4 OT DIIS     0.15E+00    4.4     0.00007835      -254.9673487106 -6.33E-05
  Decoupling Energy:                                               0.0372155260
  Recoupling Energy:                                              -0.0063757148
     5 OT DIIS     0.15E+00    4.4     0.00002591      -254.9673601285 -1.14E-05
  Decoupling Energy:                                               0.0372158099
  Recoupling Energy:                                              -0.0063757173
     6 OT DIIS     0.15E+00    4.4     0.00001297      -254.9673612390 -1.11E-06
  Decoupling Energy:                                               0.0372161516
  Recoupling Energy:                                              -0.0063757209
     7 OT DIIS     0.15E+00    4.4     0.00000392      -254.9673615381 -2.99E-07
  Decoupling Energy:                                               0.0372156716
  Recoupling Energy:                                              -0.0063757160
     8 OT DIIS     0.15E+00    4.4     0.00000141      -254.9673615645 -2.64E-08
  Decoupling Energy:                                               0.0372158578
  Recoupling Energy:                                              -0.0063757180
     9 OT DIIS     0.15E+00    4.4     0.00000048      -254.9673615687 -4.19E-09

  *** SCF run converged in     9 steps ***


  Electronic density on regular grids:       -180.0000000026       -0.0000000026
  Core density on regular grids:              180.9999999999       -0.0000000001
  Total charge density on r-space grids:        0.9999999973
  Total charge density g-space grids:           0.9999999973

  Overlap energy of the core charge distribution:               0.00004419926693
  Self energy of the core charge distribution:               -615.71576003586028
  Core Hamiltonian energy:                                    191.78835506215222
  Hartree energy:                                             247.54137731530466
  Exchange-correlation energy:                                -79.64149442141758
  QM/MM Electrostatic energy:                                   1.06011631182352

  Total energy:                                              -254.96736156873058
  Decoupling Energy:                                               0.0372157865
  Recoupling Energy:                                              -0.0063757172

 ENERGY| Total FORCE_EVAL ( QMMM ) energy [a.u.]:          -1082.129011339237877

 MD| ***************************************************************************
 MD| Step number                                                               3
 MD| Time [fs]                                                          3.000000
 MD| Conserved quantity [hartree]                            -0.846476809073E+03
 MD| ---------------------------------------------------------------------------
 MD|                                          Instantaneous             Averages
 MD| CPU time per MD step [s]                    165.183367           212.554462
 MD| Energy drift per atom [K]           0.454786451374E+01   0.527266459867E+01
 MD| Potential energy [hartree]         -0.108212901134E+04  -0.106783132294E+04
 MD| Total kinetic energy [hartree]      0.235652202266E+03   0.224189837264E+03
 MD| QM kinetic energy [hartree]         0.116444681525E+00   0.116066907550E+00
 MD| Total temperature [K]                       295.426810           281.056947
 MD| QM temperature [K]                          360.492925           359.323401
 MD| ***************************************************************************

  Translating the system in order to center the QM fragment in the QM box.

 Number of electrons:                                                        180
 Number of occupied orbitals:                                                 90
 Number of molecular orbitals:                                                90

 Number of orbital functions:                                                620
 Number of independent orbital functions:                                    620

 Extrapolation method: ASPC


 SCF WAVEFUNCTION OPTIMIZATION

  ----------------------------------- OT ---------------------------------------
  Minimizer      : DIIS                : direct inversion
                                         in the iterative subspace
                                         using   7 DIIS vectors
                                         safer DIIS on
  Preconditioner : FULL_ALL            : diagonalization, state selective
  Precond_solver : DEFAULT
  stepsize       :    0.15000000                  energy_gap     :    0.08000000
  eps_taylor     :   0.10000E-15                  max_taylor     :             4
  ----------------------------------- OT ---------------------------------------

  Step     Update method      Time    Convergence         Total energy    Change
  ------------------------------------------------------------------------------
  Decoupling Energy:                                               0.0372540981
  Recoupling Energy:                                              -0.0063761081
     1 OT DIIS     0.15E+00    3.5     0.00024459      -254.4113405129 -2.54E+02
  Decoupling Energy:                                               0.0372507589
  Recoupling Energy:                                              -0.0063760834
     2 OT DIIS     0.15E+00    4.4     0.00009754      -254.4116522396 -3.12E-04
  Decoupling Energy:                                               0.0372523114
  Recoupling Energy:                                              -0.0063760938
     3 OT DIIS     0.15E+00    4.4     0.00006294      -254.4116943854 -4.21E-05
  Decoupling Energy:                                               0.0372487207
  Recoupling Energy:                                              -0.0063760616
     4 OT DIIS     0.15E+00    4.4     0.00002078      -254.4117050360 -1.07E-05
  Decoupling Energy:                                               0.0372498216
  Recoupling Energy:                                              -0.0063760714
     5 OT DIIS     0.15E+00    4.4     0.00000699      -254.4117059543 -9.18E-07
  Decoupling Energy:                                               0.0372497342
  Recoupling Energy:                                              -0.0063760707
     6 OT DIIS     0.15E+00    4.4     0.00000424      -254.4117060280 -7.37E-08
  Decoupling Energy:                                               0.0372496961
  Recoupling Energy:                                              -0.0063760701
     7 OT DIIS     0.15E+00    4.4     0.00000103      -254.4117060580 -3.00E-08
  Decoupling Energy:                                               0.0372497534
  Recoupling Energy:                                              -0.0063760708
     8 OT DIIS     0.15E+00    4.4     0.00000046      -254.4117060599 -1.87E-09

  *** SCF run converged in     8 steps ***


  Electronic density on regular grids:       -179.9999999994        0.0000000006
  Core density on regular grids:              180.9999999999       -0.0000000001
  Total charge density on r-space grids:        1.0000000005
  Total charge density g-space grids:           1.0000000005

  Overlap energy of the core charge distribution:               0.00001948738608
  Self energy of the core charge distribution:               -615.71576003586028
  Core Hamiltonian energy:                                    191.48986426771006
  Hartree energy:                                             247.72017574378791
  Exchange-correlation energy:                                -79.55045540063585
  QM/MM Electrostatic energy:                                   1.64444987772922

  Total energy:                                              -254.41170605988285
  Decoupling Energy:                                               0.0372497052
  Recoupling Energy:                                              -0.0063760703

 ENERGY| Total FORCE_EVAL ( QMMM ) energy [a.u.]:          -1079.794214262521564

 MD| ***************************************************************************
 MD| Step number                                                               4
 MD| Time [fs]                                                          4.000000
 MD| Conserved quantity [hartree]                            -0.842197688604E+03
 MD| ---------------------------------------------------------------------------
 MD|                                          Instantaneous             Averages
 MD| CPU time per MD step [s]                    151.957295           197.405170
 MD| Energy drift per atom [K]           0.125946345184E+02   0.710315707861E+01
 MD| Potential energy [hartree]         -0.107979421426E+04  -0.107082204577E+04
 MD| Total kinetic energy [hartree]      0.237596525659E+03   0.227541509363E+03
 MD| QM kinetic energy [hartree]         0.144133270865E+00   0.123083498379E+00
 MD| Total temperature [K]                       297.864323           285.258791
 MD| QM temperature [K]                          446.212087           381.045572
 MD| ***************************************************************************

  Translating the system in order to center the QM fragment in the QM box.

 Number of electrons:                                                        180
 Number of occupied orbitals:                                                 90
 Number of molecular orbitals:                                                90

 Number of orbital functions:                                                620
 Number of independent orbital functions:                                    620

 Extrapolation method: ASPC


 SCF WAVEFUNCTION OPTIMIZATION

  ----------------------------------- OT ---------------------------------------
  Minimizer      : DIIS                : direct inversion
                                         in the iterative subspace
                                         using   7 DIIS vectors
                                         safer DIIS on
  Preconditioner : FULL_ALL            : diagonalization, state selective
  Precond_solver : DEFAULT
  stepsize       :    0.15000000                  energy_gap     :    0.08000000
  eps_taylor     :   0.10000E-15                  max_taylor     :             4
  ----------------------------------- OT ---------------------------------------

  Step     Update method      Time    Convergence         Total energy    Change
  ------------------------------------------------------------------------------
  Decoupling Energy:                                               0.0372779316
  Recoupling Energy:                                              -0.0063763730
     1 OT DIIS     0.15E+00    3.4     0.00031457      -253.8151268580 -2.54E+02
  Decoupling Energy:                                               0.0372689413
  Recoupling Energy:                                              -0.0063762905
     2 OT DIIS     0.15E+00    4.4     0.00011950      -253.8156456176 -5.19E-04
  Decoupling Energy:                                               0.0372686083
  Recoupling Energy:                                              -0.0063762777
     3 OT DIIS     0.15E+00    4.4     0.00008760      -253.8157104639 -6.48E-05
  Decoupling Energy:                                               0.0372698989
  Recoupling Energy:                                              -0.0063762979
     4 OT DIIS     0.15E+00    4.4     0.00004076      -253.8157261382 -1.57E-05
  Decoupling Energy:                                               0.0372685497
  Recoupling Energy:                                              -0.0063762803
     5 OT DIIS     0.15E+00    4.4     0.00001308      -253.8157290685 -2.93E-06
  Decoupling Energy:                                               0.0372701699
  Recoupling Energy:                                              -0.0063762991
     6 OT DIIS     0.15E+00    4.4     0.00000663      -253.8157293285 -2.60E-07
  Decoupling Energy:                                               0.0372690168
  Recoupling Energy:                                              -0.0063762862
     7 OT DIIS     0.15E+00    4.4     0.00000161      -253.8157294006 -7.20E-08
  Decoupling Energy:                                               0.0372694544
  Recoupling Energy:                                              -0.0063762910
     8 OT DIIS     0.15E+00    4.4     0.00000063      -253.8157294052 -4.64E-09

  *** SCF run converged in     8 steps ***


  Electronic density on regular grids:       -180.0000000006       -0.0000000006
  Core density on regular grids:              180.9999999999       -0.0000000001
  Total charge density on r-space grids:        0.9999999993
  Total charge density g-space grids:           0.9999999993

  Overlap energy of the core charge distribution:               0.00001460848468
  Self energy of the core charge distribution:               -615.71576003586028
  Core Hamiltonian energy:                                    191.25359591164562
  Hartree energy:                                             247.87426405293945
  Exchange-correlation energy:                                -79.47483494599602
  QM/MM Electrostatic energy:                                   2.24699100358710

  Total energy:                                              -253.81572940519945
  Decoupling Energy:                                               0.0372693262
  Recoupling Energy:                                              -0.0063762896

 ENERGY| Total FORCE_EVAL ( QMMM ) energy [a.u.]:          -1094.385760859557195

 MD| ***************************************************************************
 MD| Step number                                                               5
 MD| Time [fs]                                                          5.000000
 MD| Conserved quantity [hartree]                            -0.848473425796E+03
 MD| ---------------------------------------------------------------------------
 MD|                                          Instantaneous             Averages
 MD| CPU time per MD step [s]                    157.213758           189.366888
 MD| Energy drift per atom [K]           0.793280909064E+00   0.584118184470E+01
 MD| Potential energy [hartree]         -0.109438576086E+04  -0.107553478879E+04
 MD| Total kinetic energy [hartree]      0.245912335064E+03   0.231215674503E+03
 MD| QM kinetic energy [hartree]         0.151887285074E+00   0.128844255718E+00
 MD| Total temperature [K]                       308.289488           289.864930
 MD| QM temperature [K]                          470.217196           398.879897
 MD| ***************************************************************************

  Translating the system in order to center the QM fragment in the QM box.

 Number of electrons:                                                        180
 Number of occupied orbitals:                                                 90
 Number of molecular orbitals:                                                90

 Number of orbital functions:                                                620
 Number of independent orbital functions:                                    620

 Extrapolation method: ASPC


 SCF WAVEFUNCTION OPTIMIZATION

  ----------------------------------- OT ---------------------------------------
  Minimizer      : DIIS                : direct inversion
                                         in the iterative subspace
                                         using   7 DIIS vectors
                                         safer DIIS on
  Preconditioner : FULL_ALL            : diagonalization, state selective
  Precond_solver : DEFAULT
  stepsize       :    0.15000000                  energy_gap     :    0.08000000
  eps_taylor     :   0.10000E-15                  max_taylor     :             4
  ----------------------------------- OT ---------------------------------------

  Step     Update method      Time    Convergence         Total energy    Change
  ------------------------------------------------------------------------------
  Decoupling Energy:                                               0.0372763728
  Recoupling Energy:                                              -0.0063764058
     1 OT DIIS     0.15E+00    3.4     0.00016794      -253.2647012088 -2.53E+02
  Decoupling Energy:                                               0.0372754173
  Recoupling Energy:                                              -0.0063763916
     2 OT DIIS     0.15E+00    4.4     0.00008151      -253.2648266610 -1.25E-04
  Decoupling Energy:                                               0.0372720775
  Recoupling Energy:                                              -0.0063763537
     3 OT DIIS     0.15E+00    4.4     0.00005932      -253.2648437334 -1.71E-05
  Decoupling Energy:                                               0.0372780959
  Recoupling Energy:                                              -0.0063764225
     4 OT DIIS     0.15E+00    4.4     0.00003331      -253.2648507009 -6.97E-06
  Decoupling Energy:                                               0.0372740410
  Recoupling Energy:                                              -0.0063763747
     5 OT DIIS     0.15E+00    4.4     0.00000856      -253.2648526862 -1.99E-06
  Decoupling Energy:                                               0.0372754817
  Recoupling Energy:                                              -0.0063763917
     6 OT DIIS     0.15E+00    4.4     0.00000426      -253.2648527995 -1.13E-07
  Decoupling Energy:                                               0.0372747314
  Recoupling Energy:                                              -0.0063763834
     7 OT DIIS     0.15E+00    4.4     0.00000106      -253.2648528317 -3.21E-08
  Decoupling Energy:                                               0.0372749185
  Recoupling Energy:                                              -0.0063763853
     8 OT DIIS     0.15E+00    4.4     0.00000034      -253.2648528340 -2.34E-09

  *** SCF run converged in     8 steps ***


  Electronic density on regular grids:       -180.0000000005       -0.0000000005
  Core density on regular grids:              180.9999999999       -0.0000000001
  Total charge density on r-space grids:        0.9999999994
  Total charge density g-space grids:           0.9999999994

  Overlap energy of the core charge distribution:               0.00001414076102
  Self energy of the core charge distribution:               -615.71576003586028
  Core Hamiltonian energy:                                    191.18628299611987
  Hartree energy:                                             247.93014666223971
  Exchange-correlation energy:                                -79.44845302057587
  QM/MM Electrostatic energy:                                   2.78291642332112

  Total energy:                                              -253.26485283399450
  Decoupling Energy:                                               0.0372748699
  Recoupling Energy:                                              -0.0063763848

 ENERGY| Total FORCE_EVAL ( QMMM ) energy [a.u.]:          -1057.420858993622232

 MD| ***************************************************************************
 MD| Step number                                                               6
 MD| Time [fs]                                                          6.000000
 MD| Conserved quantity [hartree]                            -0.842984613542E+03
 MD| ---------------------------------------------------------------------------
 MD|                                          Instantaneous             Averages
 MD| CPU time per MD step [s]                    158.748435           184.263812
 MD| Energy drift per atom [K]           0.111148435110E+02   0.672012545575E+01
 MD| Potential energy [hartree]         -0.105742085899E+04  -0.107251580049E+04
 MD| Total kinetic energy [hartree]      0.214436245452E+03   0.228419102994E+03
 MD| QM kinetic energy [hartree]         0.137235213718E+00   0.130242748718E+00
 MD| Total temperature [K]                       268.829297           286.358991
 MD| QM temperature [K]                          424.856875           403.209393
 MD| ***************************************************************************

 -------------------------------------------------------------------------------
 -                                                                             -
 -                                DBCSR STATISTICS                             -
 -                                                                             -
 -------------------------------------------------------------------------------
 COUNTER                                    TOTAL       BLAS       SMM       ACC
 flops     5 x    26 x    26              1561560       0.0%    100.0%      0.0%
 flops    13 x    26 x    26              4306120       0.0%    100.0%      0.0%
 flops     5 x    32 x    32              4730880       0.0%    100.0%      0.0%
 flops    18 x    32 x    26              8386560       0.0%    100.0%      0.0%
 flops    23 x    32 x    26             10716160       0.0%    100.0%      0.0%
 flops    13 x    32 x    26             12113920       0.0%    100.0%      0.0%
 flops    18 x    32 x   100             14515200       0.0%    100.0%      0.0%
 flops    18 x    58 x    26             15200640       0.0%    100.0%      0.0%
 flops    18 x    32 x   108             15676416       0.0%    100.0%      0.0%
 flops    23 x    32 x   100             18547200       0.0%    100.0%      0.0%
 flops    41 x    32 x    26             19102720       0.0%    100.0%      0.0%
 flops    23 x    58 x    26             19423040       0.0%    100.0%      0.0%
 flops    23 x    32 x   108             20030976       0.0%    100.0%      0.0%
 flops    18 x    32 x    32             20643840       0.0%    100.0%      0.0%
 flops    13 x    32 x   100             20966400       0.0%    100.0%      0.0%
 flops    13 x    58 x    26             21956480       0.0%    100.0%      0.0%
 flops    13 x    32 x   108             22643712       0.0%    100.0%      0.0%
 flops    49 x    32 x    26             22830080       0.0%    100.0%      0.0%
 flops    26 x    32 x    26             24530688       0.0%    100.0%      0.0%
 flops    28 x    32 x    26             26091520       0.0%    100.0%      0.0%
 flops    18 x    58 x   100             26308800       0.0%    100.0%      0.0%
 flops    23 x    32 x    32             26378240       0.0%    100.0%      0.0%
 flops    18 x    58 x   108             28413504       0.0%    100.0%      0.0%
 flops    31 x    32 x    26             28887040       0.0%    100.0%      0.0%
 flops    32 x    32 x    26             30564352       0.0%    100.0%      0.0%
 flops    41 x    32 x   100             33062400       0.0%    100.0%      0.0%
 flops    36 x    32 x    26             33546240       0.0%    100.0%      0.0%
 flops    23 x    58 x   100             33616800       0.0%    100.0%      0.0%
 flops    41 x    58 x    26             34623680       0.0%    100.0%      0.0%
 flops    41 x    32 x   108             35707392       0.0%    100.0%      0.0%
 flops    23 x    58 x   108             36306144       0.0%    100.0%      0.0%
 flops    18 x    58 x    32             37416960       0.0%    100.0%      0.0%
 flops    13 x    58 x   100             38001600       0.0%    100.0%      0.0%
 flops    49 x    32 x   100             39513600       0.0%    100.0%      0.0%
 flops    13 x    58 x   108             41041728       0.0%    100.0%      0.0%
 flops    49 x    58 x    26             41379520       0.0%    100.0%      0.0%
 flops    49 x    32 x   108             42674688       0.0%    100.0%      0.0%
 flops    13 x    32 x    32             42864640       0.0%    100.0%      0.0%
 flops    26 x    58 x    26             44461872       0.0%    100.0%      0.0%
 flops    28 x    32 x   100             45158400       0.0%    100.0%      0.0%
 flops    41 x    32 x    32             47022080       0.0%    100.0%      0.0%
 flops    28 x    58 x    26             47290880       0.0%    100.0%      0.0%
 flops    23 x    58 x    32             47810560       0.0%    100.0%      0.0%
 flops    28 x    32 x   108             48771072       0.0%    100.0%      0.0%
 flops    31 x    32 x   100             49996800       0.0%    100.0%      0.0%
 flops     5 x     5 x    26             51051000       0.0%    100.0%      0.0%
 flops    31 x    58 x    26             52357760       0.0%    100.0%      0.0%
 flops    31 x    32 x   108             53996544       0.0%    100.0%      0.0%
 flops    13 x    58 x    32             54046720       0.0%    100.0%      0.0%
 flops    32 x    58 x    26             55397888       0.0%    100.0%      0.0%
 flops    49 x    32 x    32             56197120       0.0%    100.0%      0.0%
 flops    36 x    32 x   100             58060800       0.0%    100.0%      0.0%
 flops    26 x    32 x   100             59404800       0.0%    100.0%      0.0%
 flops    18 x    32 x   103             59802624       0.0%    100.0%      0.0%
 flops    41 x    58 x   100             59925600       0.0%    100.0%      0.0%
 flops    26 x    32 x    32             60383232       0.0%    100.0%      0.0%
 flops    36 x    58 x    26             60802560       0.0%    100.0%      0.0%
 flops    36 x    32 x   108             62705664       0.0%    100.0%      0.0%
 flops    26 x    32 x   108             64157184       0.0%    100.0%      0.0%
 flops    28 x    32 x    32             64225280       0.0%    100.0%      0.0%
 flops    41 x    58 x   108             64719648       0.0%    100.0%      0.0%
 flops    31 x    32 x    32             71106560       0.0%    100.0%      0.0%
 flops    49 x    58 x   100             71618400       0.0%    100.0%      0.0%
 flops    32 x    32 x    32             75235328       0.0%    100.0%      0.0%
 flops    23 x    32 x   103             76414464       0.0%    100.0%      0.0%
 flops    49 x    58 x   108             77347872       0.0%    100.0%      0.0%
 flops    28 x    58 x   100             81849600       0.0%    100.0%      0.0%
 flops    36 x    32 x    32             82575360       0.0%    100.0%      0.0%
 flops    41 x    58 x    32             85227520       0.0%    100.0%      0.0%
 flops    13 x    32 x   103             86381568       0.0%    100.0%      0.0%
 flops    28 x    58 x   108             88397568       0.0%    100.0%      0.0%
 flops    31 x    58 x   100             90619200       0.0%    100.0%      0.0%
 flops    32 x    32 x   100             94617600       0.0%    100.0%      0.0%
 flops    31 x    58 x   108             97868736       0.0%    100.0%      0.0%
 flops    49 x    58 x    32            101857280       0.0%    100.0%      0.0%
 flops    32 x    32 x   108            102187008       0.0%    100.0%      0.0%
 flops    36 x    58 x   100            105235200       0.0%    100.0%      0.0%
 flops    26 x    58 x   100            107671200       0.0%    100.0%      0.0%
 flops    18 x    58 x   103            108392256       0.0%    100.0%      0.0%
 flops    26 x    58 x    32            109444608       0.0%    100.0%      0.0%
 flops    36 x    58 x   108            113654016       0.0%    100.0%      0.0%
 flops    26 x    58 x   108            116284896       0.0%    100.0%      0.0%
 flops    28 x    58 x    32            116408320       0.0%    100.0%      0.0%
 flops     5 x     5 x    32            125664000       0.0%    100.0%      0.0%
 flops    31 x    58 x    32            128880640       0.0%    100.0%      0.0%
 flops    41 x    32 x   103            136217088       0.0%    100.0%      0.0%
 flops    32 x    58 x    32            136364032       0.0%    100.0%      0.0%
 flops    13 x     5 x    26            136518200       0.0%    100.0%      0.0%
 flops     5 x    13 x    26            136754800       0.0%    100.0%      0.0%
 flops    23 x    58 x   103            138501216       0.0%    100.0%      0.0%
 flops    36 x    58 x    32            149667840       0.0%    100.0%      0.0%
 flops    13 x    58 x   103            156566592       0.0%    100.0%      0.0%
 flops    49 x    32 x   103            162796032       0.0%    100.0%      0.0%
 flops    32 x    58 x   100            171494400       0.0%    100.0%      0.0%
 flops    32 x    58 x   108            185213952       0.0%    100.0%      0.0%
 flops    28 x    32 x   103            186052608       0.0%    100.0%      0.0%
 flops    31 x    32 x   103            205986816       0.0%    100.0%      0.0%
 flops    36 x    32 x   103            239210496       0.0%    100.0%      0.0%
 flops    26 x    32 x   103            244747776       0.0%    100.0%      0.0%
 flops    41 x    58 x   103            246893472       0.0%    100.0%      0.0%
 flops     5 x    26 x     5            247747500       0.0%    100.0%      0.0%
 flops    49 x    58 x   103            295067808       0.0%    100.0%      0.0%
 flops    13 x     5 x    32            336044800       0.0%    100.0%      0.0%
 flops     5 x    13 x    32            336627200       0.0%    100.0%      0.0%
 flops    28 x    58 x   103            337220352       0.0%    100.0%      0.0%
 flops    31 x    58 x   103            373351104       0.0%    100.0%      0.0%
 flops    13 x    13 x    26            387550800       0.0%    100.0%      0.0%
 flops    32 x    32 x   103            389824512       0.0%    100.0%      0.0%
 flops    36 x    58 x   103            433569024       0.0%    100.0%      0.0%
 flops    26 x    58 x   103            443605344       0.0%    100.0%      0.0%
 flops     5 x    32 x     5            609840000       0.0%    100.0%      0.0%
 flops    13 x    26 x     5            683182500       0.0%    100.0%      0.0%
 flops     5 x    26 x    13            683182500       0.0%    100.0%      0.0%
 flops    32 x    58 x   103            706556928       0.0%    100.0%      0.0%
 flops    13 x    13 x    32            953971200       0.0%    100.0%      0.0%
 flops    13 x    32 x     5           1681680000       0.0%    100.0%      0.0%
 flops     5 x    32 x    13           1681680000       0.0%    100.0%      0.0%
 flops    13 x    26 x    13           1883927500       0.0%    100.0%      0.0%
 flops    13 x    32 x    13           4637360000       0.0%    100.0%      0.0%
 flops inhomo. stacks                  5567486400     100.0%      0.0%      0.0%
 flops total                        29.839428E+09      18.7%     81.3%      0.0%
 flops max/rank                      7.677346E+09      29.0%     71.0%      0.0%
 matmuls inhomo. stacks                     15960     100.0%      0.0%      0.0%
 matmuls total                            2992626       0.5%     99.5%      0.0%
 number of processed stacks                307251       5.2%     94.8%      0.0%
 average stack size                                     1.0      10.2       0.0
 marketing flops                    31.361835E+09
 -------------------------------------------------------------------------------
 # multiplications                           1183
 max memory usage/rank               3.651731E+09
 # max total images/rank                        3
 # max 3D layers                                1
 # MPI messages exchanged                   49686
 MPI messages size (bytes):
  total size                         1.817970E+09
  min size                           0.000000E+00
  max size                         179.712000E+03
  average size                      36.589180E+03
 MPI breakdown and total messages size (bytes):
             size <=      128               13860                        0
       128 < size <=     8192                6027                 45030048
      8192 < size <=    32768               13944                319352320
     32768 < size <=   131072               10437                527952320
    131072 < size <=  4194304                5418                925635200
   4194304 < size <= 16777216                   0                        0
  16777216 < size                               0                        0
 -------------------------------------------------------------------------------

 *** WARNING in dbcsr_mm.F:294 :: Using a non-square number of MPI ranks ***
 *** might lead to poor performance. Used ranks: 6 Suggested: 4 9        ***

 -------------------------------------------------------------------------------
 -                                                                             -
 -                      DBCSR MESSAGE PASSING PERFORMANCE                      -
 -                                                                             -
 -------------------------------------------------------------------------------
 ROUTINE             CALLS      AVE VOLUME [Bytes]
 MP_Bcast              120                     12.
 MP_Allreduce         6411                      9.
 MP_Alltoall          5138                  24515.
 MP_ISend            24360                  17361.
 MP_IRecv            24178                  16009.
 -------------------------------------------------------------------------------

 -------------------------------------------------------------------------------
 -                                                                             -
 -                                GRID STATISTICS                              -
 -                                                                             -
 -------------------------------------------------------------------------------
 LP    KERNEL             BACKEND                              COUNT     PERCENT
 3     collocate ortho    REF                                2011617      23.95%
 3     integrate ortho    REF                                1895166      22.56%
 4     integrate ortho    REF                                1309573      15.59%
 4     collocate ortho    REF                                1221819      14.55%
 2     collocate ortho    REF                                 963552      11.47%
 2     integrate ortho    REF                                 856494      10.20%
 5     integrate ortho    REF                                 135755       1.62%
 0     collocate general  REF                                   2856       0.03%
 1     integrate general  REF                                   2856       0.03%
 -------------------------------------------------------------------------------

 MEMORY| Estimated peak process memory [MiB]                                3483

 -------------------------------------------------------------------------------
 -                                                                             -
 -                         MESSAGE PASSING PERFORMANCE                         -
 -                                                                             -
 -------------------------------------------------------------------------------

 ROUTINE             CALLS      AVE VOLUME [Bytes]
 MP_Group                8
 MP_Bcast             6912               10651744.
 MP_Allreduce         2412                1703977.
 MP_Sync                12
 MP_Alltoall          1330              190166615.
 MP_ISendRecv         1890                2112000.
 MP_Wait              3661
 MP_ISend             1407                8744858.
 MP_IRecv             1400                8784742.
 MP_Recv                14                 158720.
 -------------------------------------------------------------------------------


 -------------------------------------------------------------------------------
 -                                                                             -
 -                           R E F E R E N C E S                               -
 -                                                                             -
 -------------------------------------------------------------------------------
 
 CP2K version 8.1, the CP2K developers group (2020).
 CP2K is freely available from https://www.cp2k.org/ .

 Kuehne,Thomas D.; Iannuzzi,Marcella; Del Ben,Mauro;
 Rybkin,Vladimir V.; Seewald,Patrick; Stein,Frederick; Laino,Teodoro;
 Khaliullin,Rustam Z.; Schuett,Ole; Schiffmann,Florian; Golze,Dorothea;
 Wilhelm,Jan; Chulkov,Sergey; Bani-Hashemian,Mohammad Hossein;
 Weber,Valery; Borstnik,Urban; Taillefumier,Mathieu;
 Jakobovits,Alice Shoshana; Lazzaro,Alfio; Pabst,Hans; Mueller,Tiziano;
 Schade,Robert; Guidon,Manuel; Andermatt,Samuel; Holmberg,Nico;
 Schenter,Gregory K.; Hehn,Anna; Bussy,Augustin; Belleflamme,Fabian;
 Tabacchi,Gloria; Gloess,Andreas; Lass,Michael; Bethune,Iain;
 Mundy,Christopher J.; Plessl,Christian; Watkins,Matt;
 VandeVondele,Joost; Krack,Matthias; Hutter,Juerg. 
 The Journal of Chemical Physics, 152 (19), (2020). 
 CP2K: An electronic structure and molecular dynamics software package -
 Quickstep: Efficient and accurate electronic structure calculations.
 https://doi.org/10.1063/5.0007045

 Schuett, Ole; Messmer, Peter; Hutter, Juerg; VandeVondele, Joost. 
 Electronic Structure Calculations on Graphics Processing Units, John
 Wiley & Sons, Ltd, 173-190 (2016). 
 GPU-Accelerated Sparse Matrix-Matrix Multiplication for
 Linear Scaling Density Functional Theory.
 https://doi.org/10.1002/9781118670712.ch8

 Borstnik, U; VandeVondele, J; Weber, V; Hutter, J. 
 PARALLEL COMPUTING, 40 (5-6), 47-58 (2014). 
 Sparse matrix multiplication: The distributed block-compressed sparse
 row library.
 https://doi.org/10.1016/j.parco.2014.03.012

 Hutter, J; Iannuzzi, M; Schiffmann, F; VandeVondele, J. 
 WIREs Comput Mol Sci., 4 (1), 15-25 (2014). 
 CP2K: atomistic simulations of condensed matter systems.
 https://doi.org/10.1002/wcms.1159

 Marek, A; Blum, V; Johanni, R; Havu, V; Lang, B; Auckenthaler, T;
 Heinecke, A; Bungartz, H; Lederer, H. 
 Journal of Physics: Condensed Matter, 26 (21), (2014). 
 The ELPA library: scalable parallel eigenvalue solutions for
 electronic structure
 theory and computational science.
 https://doi.org/10.1088/0953-8984/26/21/213201

 VandeVondele, J; Hutter, J. 
 JOURNAL OF CHEMICAL PHYSICS, 127 (11), 114105 (2007). 
 Gaussian basis sets for accurate calculations on molecular systems in
 gas and condensed phases.
 https://doi.org/10.1063/1.2770708

 Kuhne, TD; Krack, M; Mohamed, FR; Parrinello, M. 
 PHYSICAL REVIEW LETTERS, 98 (6), 066401 (2007). 
 Efficient and accurate Car-Parrinello-like approach to
 Born-Oppenheimer molecular dynamics.
 https://doi.org/10.1103/PhysRevLett.98.066401

 Laino, T; Mohamed, F; Laio, A; Parrinello, M. 
 JOURNAL OF CHEMICAL THEORY AND COMPUTATION, 2 (5), 1370-1378 (2006). 
 An efficient linear-scaling electrostatic coupling for treating
 periodic boundary conditions in QM/MM simulations.
 https://doi.org/10.1021/ct6001169

 Laino, T; Mohamed, F; Laio, A; Parrinello, M. 
 JOURNAL OF CHEMICAL THEORY AND COMPUTATION, 1 (6), 1176-1184 (2005). 
 An efficient real space multigrid QM/MM electrostatic coupling.
 https://doi.org/10.1021/ct050123f

 Krack, M. 
 THEORETICAL CHEMISTRY ACCOUNTS, 114 (1-3), 145-152 (2005). 
 Pseudopotentials for H to Kr optimized for gradient-corrected
 exchange-correlation functionals.
 https://doi.org/10.1007/s00214-005-0655-y

 VandeVondele, J; Krack, M; Mohamed, F; Parrinello, M; Chassaing, T;
 Hutter, J. COMPUTER PHYSICS COMMUNICATIONS, 167 (2), 103-128 (2005). 
 QUICKSTEP: Fast and accurate density functional calculations using a
 mixed Gaussian and plane waves approach.
 https://doi.org/10.1016/j.cpc.2004.12.014

 Frigo, M; Johnson, SG. 
 PROCEEDINGS OF THE IEEE, 93 (2), 216-231 (2005). 
 The design and implementation of FFTW3.
 https://doi.org/10.1109/JPROC.2004.840301

 Kolafa, J. 
 JOURNAL OF COMPUTATIONAL CHEMISTRY, 25 (3), 335-342 (2004). 
 Time-reversible always stable predictor-corrector method for molecular dynamics of polarizable molecules.
 https://doi.org/10.1002/jcc.10385

 VandeVondele, J; Hutter, J. 
 JOURNAL OF CHEMICAL PHYSICS, 118 (10), 4365-4369 (2003). 
 An efficient orbital transformation method for electronic structure
 calculations.
 https://doi.org/10.1063/1.1543154

 Hartwigsen, C; Goedecker, S; Hutter, J. 
 PHYSICAL REVIEW B, 58 (7), 3641-3662 (1998). 
 Relativistic separable dual-space Gaussian pseudopotentials from H to Rn.
 https://doi.org/10.1103/PhysRevB.58.3641

 Lippert, G; Hutter, J; Parrinello, M. 
 MOLECULAR PHYSICS, 92 (3), 477-487 (1997). 
 A hybrid Gaussian and plane wave density functional scheme.
 https://doi.org/10.1080/002689797170220

 Perdew, JP; Burke, K; Ernzerhof, M. 
 PHYSICAL REVIEW LETTERS, 77 (18), 3865-3868 (1996). 
 Generalized gradient approximation made simple.
 https://doi.org/10.1103/PhysRevLett.77.3865

 Goedecker, S; Teter, M; Hutter, J. 
 PHYSICAL REVIEW B, 54 (3), 1703-1710 (1996). 
 Separable dual-space Gaussian pseudopotentials.
 https://doi.org/10.1103/PhysRevB.54.1703

 ESSMANN, U; PERERA, L; BERKOWITZ, ML; DARDEN, T; LEE, H; PEDERSEN, LG. 
 JOURNAL OF CHEMICAL PHYSICS, 103 (19), 8577-8593 (1995). 
 A SMOOTH PARTICLE MESH EWALD METHOD.
 https://doi.org/10.1063/1.470117

 BLOCHL, PE. 
 JOURNAL OF CHEMICAL PHYSICS, 103 (17), 7422-7428 (1995). 
 ELECTROSTATIC DECOUPLING OF PERIODIC IMAGES OF PLANE-WAVE-EXPANDED
 DENSITIES AND DERIVED ATOMIC POINT CHARGES.
 https://doi.org/10.1063/1.470314


 -------------------------------------------------------------------------------
 -                                                                             -
 -                                T I M I N G                                  -
 -                                                                             -
 -------------------------------------------------------------------------------
 SUBROUTINE                       CALLS  ASD         SELF TIME        TOTAL TIME
                                MAXIMUM       AVERAGE  MAXIMUM  AVERAGE  MAXIMUM
 CP2K                                 1  1.0    0.650    0.680 1163.663 1163.665
 qs_mol_dyn_low                       1  2.0    0.103    0.117 1107.214 1108.845
 velocity_verlet                      6  3.0    0.351    0.354  959.591  960.259
 qmmm_el_coupling                     7  3.9    0.000    0.000  393.090  393.211
 qmmm_elec_with_gaussian              7  4.9    0.104    0.106  393.059  393.178
 qmmm_forces                          7  3.9    0.022    0.023  382.461  382.462
 qmmm_forces_with_gaussian            7  4.9    0.293    0.308  377.316  379.278
 qmmm_elec_with_gaussian_low          7  5.9    0.000    0.000  347.350  352.297
 qmmm_force_with_gaussian_low         7  5.9    0.000    0.000  347.513  349.344
 qs_forces                            7  3.9    0.069    0.069  291.655  291.659
 qmmm_forces_gaussian_low_R           7  6.9    0.000    0.000  290.387  291.551
 qmmm_forces_with_gaussian_LG         7  7.9  290.387  291.551  290.387  291.551
 qs_energies                          7  4.9    0.192    0.192  264.063  264.067
 scf_env_do_scf                       7  5.9    0.052    0.066  248.905  248.905
 scf_env_do_scf_inner_loop           56  6.9    0.008    0.016  224.753  225.130
 rebuild_ks_matrix                   63  8.6    0.001    0.001  203.318  203.324
 qs_ks_build_kohn_sham_matrix        63  9.6    0.206    0.220  203.317  203.323
 qmmm_elec_gaussian_low_R             7  6.9    0.000    0.000  200.670  203.147
 qmmm_elec_with_gaussian_LG           7  7.9  200.670  203.147  200.670  203.147
 qs_ks_update_qs_env                 63  7.9    0.000    0.001  177.992  177.997
 pw_transfer                       1337 12.1    0.129    0.144  147.152  151.947
 qmmm_elec_gaussian_low_G             7  6.9  146.680  151.211  146.680  151.211
 fft_wrap_pw1pw2                   1113 13.2    0.017    0.019  144.841  149.665
 fft_wrap_pw1pw2_200                707 14.4   15.997   16.682  141.724  146.909
 qs_vxc_create                       63 10.6    0.005    0.005  121.849  121.873
 xc_vxc_pw_create                    63 11.6    2.417    2.663  121.844  121.869
 fft3d_ps                          1113 15.2   68.428   71.330  101.537  106.084
 qs_rho_update_rho                   63  8.0    0.000    0.000   75.732   75.732
 calculate_rho_elec                  63  9.0    1.623    1.644   75.731   75.732
 xc_rho_set_and_dset_create          63 12.6    0.397    0.477   61.703   64.474
 qmmm_forces_gaussian_low_G           7  6.9   57.126   58.794   57.126   58.794
 qmmm_env_create                      1  2.0   14.203   14.627   54.096   54.101
 pw_integral_ab                    2967  7.5   42.607   42.928   43.167   43.636
 density_rs2pw                       63 10.0    0.004    0.004   38.735   40.096
 sum_up_and_integrate                63 10.6    0.695    0.718   38.424   38.449
 grid_collocate_task_list            63 10.0   35.138   38.088   35.138   38.088
 integrate_v_rspace                  63 11.6    0.024    0.025   37.729   37.764
 mp_sum_dm3                          38  5.7   31.002   37.313   31.002   37.313
 fist_init                            1  3.0    0.000    0.000   33.734   33.734
 fist_calc_energy_force               7  3.9    0.061    0.062   33.036   33.138
 mp_alltoall_z22v                  1113 17.2   22.938   29.181   22.938   29.181
 pw_restrict_s3                      21  5.9    4.374    4.421   26.114   26.207
 qs_ks_update_qs_env_forces           7  4.9    0.000    0.000   25.337   25.338
 potential_pw2rs                     63 12.6    0.042    0.044   24.546   24.580
 init_scf_loop                        7  6.9    0.000    0.000   23.679   23.680
 qs_ks_ddapc                         63 10.6    0.027    0.027   23.209   23.462
 rs_pw_transfer                     546 11.9    0.008    0.009   22.125   23.300
 -------------------------------------------------------------------------------

 The number of warnings for this run is : 1
 
 -------------------------------------------------------------------------------
  **** **** ******  **  PROGRAM ENDED AT                 2021-02-26 13:23:15.223
 ***** ** ***  *** **   PROGRAM RAN ON                                   r1i2n22
 **    ****   ******    PROGRAM RAN BY                                    hollyj
 ***** **    ** ** **   PROGRAM PROCESS ID                                 24531
  **** **  *******  **  PROGRAM STOPPED IN /lustre/home/w68/hollyj/CP2K/Cirrus/C
                                           PU/cp2kMD/CBD_PHY/6STEPS/1NODES/36CPN
                                           /6THREADS
