 DBCSR| CPU Multiplication driver                                           XSMM
 DBCSR| Multrec recursion limit                                              512
 DBCSR| Multiplication stack size                                           1000
 DBCSR| Maximum elements for images                                    UNLIMITED
 DBCSR| Multiplicative factor virtual images                                   1
 DBCSR| Use multiplication densification                                       T
 DBCSR| Multiplication size stacks                                             3
 DBCSR| Use memory pool for CPU allocation                                     F
 DBCSR| Number of 3D layers                                               SINGLE
 DBCSR| Use MPI memory allocation                                              F
 DBCSR| Use RMA algorithm                                                      F
 DBCSR| Use Communication thread                                               T
 DBCSR| Communication thread load                                             68
 DBCSR| MPI: My node id                                                        0
 DBCSR| MPI: Number of nodes                                                   6
 DBCSR| OMP: Current number of threads                                         6
 DBCSR| OMP: Max number of threads                                             6
 DBCSR| Split modifier for TAS multiplication algorithm                  1.0E+00


  **** **** ******  **  PROGRAM STARTED AT               2021-04-09 12:30:38.718
 ***** ** ***  *** **   PROGRAM STARTED ON                               r1i6n17
 **    ****   ******    PROGRAM STARTED BY                                hollyj
 ***** **    ** ** **   PROGRAM PROCESS ID                                 23712
  **** **  *******  **  PROGRAM STARTED IN /lustre/home/w68/hollyj/CP2K/Cirrus/C
                                           PU/cp2kMD/ClC-253-BLYP/1STEPS/1NODES/
                                           36CPN/6THREADS

 CP2K| version string:                                          CP2K version 8.1
 CP2K| source code revision number:                                  git:0b61f2f
 CP2K| cp2kflags: omp libint fftw3 libxc elpa parallel mpi3 scalapack xsmm spgli
 CP2K|            b mkl
 CP2K| is freely available from                            https://www.cp2k.org/
 CP2K| Program compiled at                           Mon Feb 1 13:14:42 GMT 2021
 CP2K| Program compiled on                                         cirrus-login1
 CP2K| Program compiled for                                           Cirrus-gcc
 CP2K| Data directory path       /lustre/home/w68/hollyj/CP2K/v8.1/cp2k-8.1/data
 CP2K| Input file name                                          ClC-253-cp2k.inp

 GLOBAL| Force Environment number                                              1
 GLOBAL| Basis set file name                                        BASIS_MOLOPT
 GLOBAL| Potential file name                                           POTENTIAL
 GLOBAL| MM Potential file name                                     MM_POTENTIAL
 GLOBAL| Coordinate file name                                            ClC.pdb
 GLOBAL| Method name                                                        CP2K
 GLOBAL| Project name                                               ClC-253-BLYP
 GLOBAL| Preferred FFT library                                             FFTW3
 GLOBAL| Preferred diagonalization lib.                                     ELPA
 GLOBAL| Run type                                                             MD
 GLOBAL| All-to-all communication in single precision                          F
 GLOBAL| FFTs using library dependent lengths                                  F
 GLOBAL| Global print level                                                  LOW
 GLOBAL| MPI I/O enabled                                                       T
 GLOBAL| Total number of message passing processes                             6
 GLOBAL| Number of threads for this process                                    6
 GLOBAL| This output is from process                                           0
 GLOBAL| CPU model name                Intel(R) Xeon(R) CPU E5-2695 v4 @ 2.10GHz
 GLOBAL| CPUID                                                              1002
 GLOBAL| Compiled for CPUID                                                 1001

 *** HINT in environment.F:802 :: The compiler target flags (x86_avx) used ***
 *** to build this binary cannot exploit all extensions of this CPU model  ***
 *** (x86_avx2). Consider compiler target flags as part of FCFLAGS and     ***
 *** CFLAGS (ARCH file).                                                   ***


 MEMORY| system memory details [Kb]
 MEMORY|                        rank 0           min           max       average
 MEMORY| MemTotal            263692172     263692172     263692172     263692172
 MEMORY| MemFree             260884552     260884552     260884552     260884552
 MEMORY| Buffers                     0             0             0             0
 MEMORY| Cached                 538176        538172        538176        538172
 MEMORY| Slab                   682688        682688        682688        682688
 MEMORY| SReclaimable           153848        153848        153848        153848
 MEMORY| MemLikelyFree       261576576     261576572     261576576     261576572



                      ************* ******** ***********   
                     ************* **********************  
                     ****     **** ****      ***********   
                     ******** ****  *******     ****       
                     *******  ****   *******   ****        
                     ****     ****       ****  ****        
                     ****     **** **********  ****        
                      ****     **** ********    ****       
                     FRONTIERS IN SIMULATION TECHNOLOGY    
                                                           
                        C.J. Mundy, S. Balasubramanian,    
                     Ken Bagchi, J. Hutter, Ari Seitsonen  
                      IFW Kuo, T. Laino, J. VandeVondele   
                                 Version 1.0               

                                                           


 EWALD| Summation is done by:                                               SPME
 EWALD| Alpha parameter [       ANGSTROM^-1]                              0.4000
 EWALD| Real Space Cutoff [          ANGSTROM]                            8.4348
 EWALD| G-space max. Miller index                         80        80        80
 EWALD| Spline interpolation order                                             6

 FORCEFIELD| WARNING: A non Critical ForceField parameter is missing! CP2K GOES!
 FORCEFIELD| Non critical parameters are:Urey-Bradley,Torsions,Impropers, Opbends and 1-4
 FORCEFIELD| All missing parameters will not contribute to the potential energy!
 FORCEFIELD| Activate the print key FF_INFO to have a list of missing parameters

 CHARGE_INFO| Total Charge of the Classical System:                     2.369895

 SPLINE_INFO| Generating 85491 splines for NONBONDED14 interactions 
              Due to 413 different atomic kinds
  ...8549  ...17098  ...25647  ...34196  ...42745  ...51294  ...59843  ...68392  ...76941  ...85490
 SPLINE_INFO| Number of unique splines computed:            254
 SPLINE_INFO| Done

 SPLINE_INFO| Generating 85491 splines for NONBONDED interactions 
              Due to 413 different atomic kinds
  ...8549  ...17098  ...25647  ...34196  ...42745  ...51294  ...59843  ...68392  ...76941  ...85490
 SPLINE_INFO| Number of unique splines computed:            254
 SPLINE_INFO| Done

 *******************************************************************************
 *******************************************************************************
 **                                                                           **
 **     #####                         ##              ##                      **
 **    ##   ##            ##          ##              ##                      **
 **   ##     ##                       ##            ######                    **
 **   ##     ##  ##   ##  ##   #####  ##  ##   ####   ##    #####    #####    **
 **   ##     ##  ##   ##  ##  ##      ## ##   ##      ##   ##   ##  ##   ##   **
 **   ##  ## ##  ##   ##  ##  ##      ####     ###    ##   ######   ######    **
 **    ##  ###   ##   ##  ##  ##      ## ##      ##   ##   ##       ##        **
 **     #######   #####   ##   #####  ##  ##  ####    ##    #####   ##        **
 **           ##                                                    ##        **
 **                                                                           **
 **                                                ... make the atoms dance   **
 **                                                                           **
 **            Copyright (C) by CP2K developers group (2000 - 2020)           **
 **                      J. Chem. Phys. 152, 194103 (2020)                    **
 **                                                                           **
 *******************************************************************************


 TOTAL NUMBERS AND MAXIMUM NUMBERS

  Total number of            - Atomic kinds:                                   6
                             - Atoms:                                        253
                             - Shell sets:                                   253
                             - Shells:                                       991
                             - Primitive Cartesian functions:               1770
                             - Cartesian basis functions:                   2309
                             - Spherical basis functions:                   2193

  Maximum angular momentum of- Orbital basis functions:                        2
                             - Local part of the GTH pseudopotential:          2
                             - Non-local part of the GTH pseudopotential:      2


 SCF PARAMETERS         Density guess:                                   RESTART
                        --------------------------------------------------------
                        max_scf:                                             300
                        max_scf_history:                                       0
                        max_diis:                                              4
                        --------------------------------------------------------
                        eps_scf:                                        1.00E-06
                        eps_scf_history:                                0.00E+00
                        eps_diis:                                       1.00E-01
                        eps_eigval:                                     1.00E-05
                        --------------------------------------------------------
                        level_shift [a.u.]:                                 0.00
                        --------------------------------------------------------
                        No outer SCF

 *******************************************************************************
 *******************************************************************************
 **                                                                           **
 **             #######  ##     ## ##     ## ##     ##                        **
 **            ##     ## ###   ### ###   ### ###   ###                        **
 **            ##     ## #### #### #### #### #### ####                        **
 **            ##     ## ## ### ## ## ### ## ## ### ##                        **
 **            ##  ## ## ##     ## ##     ## ##     ##                        **
 **            ##    ##  ##     ## ##     ## ##     ##  T.Laino and F.Mohamed **
 **             ##### ## ##     ## ##     ## ##     ##  2005 - 2015           **
 **                                                                           **
 **                                                     Calculation Started.. **
 *******************************************************************************
 *******************************************************************************

 MD_PAR| Molecular dynamics protocol (MD input parameters)
 MD_PAR| Ensemble type                                                       NVE
 MD_PAR| Number of time steps                                                  1
 MD_PAR| Time step [fs]                                                 1.000000
 MD_PAR| Temperature [K]                                              300.000000
 MD_PAR| Temperature tolerance [K]                                      0.000000
 MD_PAR| Print MD information every                                    1 step(s)
 MD_PAR| File type   Print frequency [steps]                          File names
 MD_PAR| Coordinates          1                           ClC-253-BLYP-pos-1.xyz
 MD_PAR| Velocities           1                           ClC-253-BLYP-vel-1.xyz
 MD_PAR| Energies             1                              ClC-253-BLYP-1.ener
 MD_PAR| Dump                20                           ClC-253-BLYP-1.restart

 ROT| Rotational analysis information
 ROT| Principal axes and moments of inertia [a.u.]
 ROT|                           1                   2                   3
 ROT| Eigenvalues      1.18228221563E+13   1.18772146411E+13   1.55923586977E+13
 ROT|      x             -0.973134378681     -0.230223222672      0.002597839626
 ROT|      y             -0.230225448758      0.973137141292     -0.000589052320
 ROT|      z              0.002392440703      0.001171315857      0.999996452117
 ROT| Number of rotovibrational vectors                                        6

 DOF| Calculation of degrees of freedom
 DOF| Number of atoms                                                     150925
 DOF| Number of intramolecular constraints                                     0
 DOF| Number of intermolecular constraints                                     0
 DOF| Invariants (translations + rotations)                                    3
 DOF| Degrees of freedom                                                  452772

 DOF| Restraints information
 DOF| Number of intramolecular restraints                                      0
 DOF| Number of intermolecular restraints                                      0

 MD_VEL| Velocities initialization
 MD_VEL| Initial temperature [K]                                      300.000000
 MD_VEL| COM velocity            -0.0000000000     0.0000000000     0.0000000000

  Translating the system in order to center the QM fragment in the QM box.

 Number of electrons:                                                        654
 Number of occupied orbitals:                                                327
 Number of molecular orbitals:                                               327

 Number of orbital functions:                                               2193
 Number of independent orbital functions:                                   2193

 Extrapolation method: initial_guess


 SCF WAVEFUNCTION OPTIMIZATION

  ----------------------------------- OT ---------------------------------------
  Minimizer      : DIIS                : direct inversion
                                         in the iterative subspace
                                         using   7 DIIS vectors
                                         safer DIIS on
  Preconditioner : FULL_ALL            : diagonalization, state selective
  Precond_solver : DEFAULT
  stepsize       :    0.15000000                  energy_gap     :    0.08000000
  eps_taylor     :   0.10000E-15                  max_taylor     :             4
  ----------------------------------- OT ---------------------------------------

  Step     Update method      Time    Convergence         Total energy    Change
  ------------------------------------------------------------------------------
  Decoupling Energy:                                               0.0675035110
  Recoupling Energy:                                              -0.0068223751
     1 OT DIIS     0.15E+00    7.6     0.00000111     -1098.7918323422 -1.10E+03
  Decoupling Energy:                                               0.0675004361
  Recoupling Energy:                                              -0.0068222921
     2 OT DIIS     0.15E+00    6.5     0.00000182     -1098.7918324061 -6.39E-08
  Decoupling Energy:                                               0.0675017270
  Recoupling Energy:                                              -0.0068223358
     3 OT DIIS     0.15E+00    6.5     0.00000098     -1098.7918324634 -5.73E-08

  *** SCF run converged in     3 steps ***


  Electronic density on regular grids:       -654.0000008477       -0.0000008477
  Core density on regular grids:              654.9999999994       -0.0000000006
  Total charge density on r-space grids:        0.9999991517
  Total charge density g-space grids:           0.9999991517

  Overlap energy of the core charge distribution:               0.00004213532864
  Self energy of the core charge distribution:              -2459.11679630764229
  Core Hamiltonian energy:                                    751.03829819303269
  Hartree energy:                                            1002.26599084251416
  Exchange-correlation energy:                               -294.03608875666680
  QM/MM Electrostatic energy:                                 -98.94327856993755

  Total energy:                                             -1098.79183246337107
  Decoupling Energy:                                               0.0675016129
  Recoupling Energy:                                              -0.0068223367

 ENERGY| Total FORCE_EVAL ( QMMM ) energy [a.u.]:          -1469.875700984465311

 MD_INI| MD initialization
 MD_INI| Potential energy [hartree]                          -0.146987570098E+04
 MD_INI| Total kinetic energy [hartree]                       0.215076797492E+03
 MD_INI| QM kinetic energy [hartree]                          0.369606607592E+00
 MD_INI| Total temperature [K]                                        300.000000
 MD_INI| QM temperature [K]                                           307.542546
 MD_INI| Cell volume [bohr^3]                                 9.853827160554E+06
 MD_INI| Cell volume [ang^3]                                  1.460186515536E+06
 MD_INI| Cell lengths [bohr]      2.39870119E+02  2.39870119E+02  1.71258698E+02
 MD_INI| Cell lengths [ang]       1.26933800E+02  1.26933800E+02  9.06262000E+01
 MD_INI| Cell angles [deg]        9.00000000E+01  9.00000000E+01  9.00000000E+01

  Translating the system in order to center the QM fragment in the QM box.

 Number of electrons:                                                        654
 Number of occupied orbitals:                                                327
 Number of molecular orbitals:                                               327

 Number of orbital functions:                                               2193
 Number of independent orbital functions:                                   2193

 Extrapolation method: ASPC


 SCF WAVEFUNCTION OPTIMIZATION

  ----------------------------------- OT ---------------------------------------
  Minimizer      : DIIS                : direct inversion
                                         in the iterative subspace
                                         using   7 DIIS vectors
                                         safer DIIS on
  Preconditioner : FULL_ALL            : diagonalization, state selective
  Precond_solver : DEFAULT
  stepsize       :    0.15000000                  energy_gap     :    0.08000000
  eps_taylor     :   0.10000E-15                  max_taylor     :             4
  ----------------------------------- OT ---------------------------------------

  Step     Update method      Time    Convergence         Total energy    Change
  ------------------------------------------------------------------------------
  Decoupling Energy:                                               0.0676658532
  Recoupling Energy:                                              -0.0068237527
     1 OT DIIS     0.15E+00    7.5     0.00038779     -1098.3649169401 -1.10E+03
  Decoupling Energy:                                               0.0674445569
  Recoupling Energy:                                              -0.0068207230
     2 OT DIIS     0.15E+00    6.5     0.00028012     -1098.3740152437 -9.10E-03
  Decoupling Energy:                                               0.0676512652
  Recoupling Energy:                                              -0.0068214650
     3 OT DIIS     0.15E+00    6.5     0.00045365     -1098.3736236496  3.92E-04
  Decoupling Energy:                                               0.0674776465
  Recoupling Energy:                                              -0.0068213531
     4 OT DIIS     0.15E+00    6.5     0.00017745     -1098.3760440197 -2.42E-03
  Decoupling Energy:                                               0.0674299755
  Recoupling Energy:                                              -0.0068207525
     5 OT DIIS     0.15E+00    6.5     0.00005926     -1098.3765439022 -5.00E-04
  Decoupling Energy:                                               0.0674468743
  Recoupling Energy:                                              -0.0068203542
     6 OT DIIS     0.15E+00    6.5     0.00004388     -1098.3765866377 -4.27E-05
  Decoupling Energy:                                               0.0674565707
  Recoupling Energy:                                              -0.0068208136
     7 OT DIIS     0.15E+00    6.5     0.00001587     -1098.3766086121 -2.20E-05
  Decoupling Energy:                                               0.0674431897
  Recoupling Energy:                                              -0.0068207177
     8 OT DIIS     0.15E+00    6.5     0.00000828     -1098.3766147349 -6.12E-06
  Decoupling Energy:                                               0.0674418194
  Recoupling Energy:                                              -0.0068205796
     9 OT DIIS     0.15E+00    6.5     0.00000615     -1098.3766170736 -2.34E-06
  Decoupling Energy:                                               0.0674451774
  Recoupling Energy:                                              -0.0068208128
    10 OT DIIS     0.15E+00    6.5     0.00000531     -1098.3766198759 -2.80E-06
  Decoupling Energy:                                               0.0674342587
  Recoupling Energy:                                              -0.0068206129
    11 OT DIIS     0.15E+00    6.5     0.00000394     -1098.3766225782 -2.70E-06
  Decoupling Energy:                                               0.0674351488
  Recoupling Energy:                                              -0.0068206950
    12 OT DIIS     0.15E+00    6.5     0.00000315     -1098.3766249101 -2.33E-06
  Decoupling Energy:                                               0.0674326702
  Recoupling Energy:                                              -0.0068207139
    13 OT DIIS     0.15E+00    6.5     0.00000297     -1098.3766264532 -1.54E-06
  Decoupling Energy:                                               0.0674322211
  Recoupling Energy:                                              -0.0068206876
    14 OT DIIS     0.15E+00    6.5     0.00000295     -1098.3766272699 -8.17E-07
  Decoupling Energy:                                               0.0674315990
  Recoupling Energy:                                              -0.0068207107
    15 OT DIIS     0.15E+00    6.5     0.00000271     -1098.3766281203 -8.50E-07
  Decoupling Energy:                                               0.0674308683
  Recoupling Energy:                                              -0.0068207162
    16 OT DIIS     0.15E+00    6.5     0.00000247     -1098.3766288344 -7.14E-07
  Decoupling Energy:                                               0.0674315678
  Recoupling Energy:                                              -0.0068207194
    17 OT DIIS     0.15E+00    6.5     0.00000220     -1098.3766294315 -5.97E-07
  Decoupling Energy:                                               0.0674323118
  Recoupling Energy:                                              -0.0068207585
    18 OT DIIS     0.15E+00    6.5     0.00000194     -1098.3766303408 -9.09E-07
  Decoupling Energy:                                               0.0674295111
  Recoupling Energy:                                              -0.0068207023
    19 OT DIIS     0.15E+00    6.5     0.00000176     -1098.3766309096 -5.69E-07
  Decoupling Energy:                                               0.0674302148
  Recoupling Energy:                                              -0.0068207360
    20 OT DIIS     0.15E+00    6.5     0.00000156     -1098.3766315910 -6.81E-07
  Decoupling Energy:                                               0.0674298223
  Recoupling Energy:                                              -0.0068207251
    21 OT DIIS     0.15E+00    6.5     0.00000147     -1098.3766321294 -5.38E-07
  Decoupling Energy:                                               0.0674290629
  Recoupling Energy:                                              -0.0068207126
    22 OT DIIS     0.15E+00    6.5     0.00000147     -1098.3766325343 -4.05E-07
  Decoupling Energy:                                               0.0674280755
  Recoupling Energy:                                              -0.0068207015
    23 OT DIIS     0.15E+00    6.5     0.00000146     -1098.3766329195 -3.85E-07
  Decoupling Energy:                                               0.0674276902
  Recoupling Energy:                                              -0.0068206929
    24 OT DIIS     0.15E+00    6.5     0.00000141     -1098.3766332140 -2.94E-07
  Decoupling Energy:                                               0.0674275611
  Recoupling Energy:                                              -0.0068206844
    25 OT DIIS     0.15E+00    6.5     0.00000132     -1098.3766335509 -3.37E-07
  Decoupling Energy:                                               0.0674271096
  Recoupling Energy:                                              -0.0068206806
    26 OT DIIS     0.15E+00    6.5     0.00000121     -1098.3766339170 -3.66E-07
  Decoupling Energy:                                               0.0674256583
  Recoupling Energy:                                              -0.0068206477
    27 OT DIIS     0.15E+00    6.5     0.00000117     -1098.3766341645 -2.48E-07
  Decoupling Energy:                                               0.0674255562
  Recoupling Energy:                                              -0.0068206517
    28 OT DIIS     0.15E+00    6.5     0.00000110     -1098.3766344853 -3.21E-07
  Decoupling Energy:                                               0.0674253778
  Recoupling Energy:                                              -0.0068206417
    29 OT DIIS     0.15E+00    6.5     0.00000107     -1098.3766347710 -2.86E-07
  Decoupling Energy:                                               0.0674249608
  Recoupling Energy:                                              -0.0068206323
    30 OT DIIS     0.15E+00    6.5     0.00000107     -1098.3766350575 -2.86E-07
  Decoupling Energy:                                               0.0674245015
  Recoupling Energy:                                              -0.0068206265
    31 OT DIIS     0.15E+00    6.5     0.00000107     -1098.3766353402 -2.83E-07
  Decoupling Energy:                                               0.0674245040
  Recoupling Energy:                                              -0.0068206233
    32 OT DIIS     0.15E+00    6.5     0.00000106     -1098.3766355440 -2.04E-07
  Decoupling Energy:                                               0.0674247391
  Recoupling Energy:                                              -0.0068206246
    33 OT DIIS     0.15E+00    6.5     0.00000103     -1098.3766358227 -2.79E-07
  Decoupling Energy:                                               0.0674248161
  Recoupling Energy:                                              -0.0068206269
    34 OT DIIS     0.15E+00    6.5     0.00000099     -1098.3766361322 -3.10E-07

  *** SCF run converged in    34 steps ***


  Electronic density on regular grids:       -654.0000005662       -0.0000005662
  Core density on regular grids:              654.9999999988       -0.0000000012
  Total charge density on r-space grids:        0.9999994326
  Total charge density g-space grids:           0.9999994326

  Overlap energy of the core charge distribution:               0.00004332465283
  Self energy of the core charge distribution:              -2459.11679630764229
  Core Hamiltonian energy:                                    750.78608054319557
  Hartree energy:                                            1002.45036695633030
  Exchange-correlation energy:                               -293.96930551312994
  QM/MM Electrostatic energy:                                 -98.52702513560915

  Total energy:                                             -1098.37663613220275
  Decoupling Energy:                                               0.0674242569
  Recoupling Energy:                                              -0.0068206125

 ENERGY| Total FORCE_EVAL ( QMMM ) energy [a.u.]:          -1447.997666804345045

 MD| ***************************************************************************
 MD| Step number                                                               1
 MD| Time [fs]                                                          1.000000
 MD| Conserved quantity [hartree]                            -0.124929046150E+04
 MD| ---------------------------------------------------------------------------
 MD|                                          Instantaneous             Averages
 MD| CPU time per MD step [s]                    487.331075           487.331075
 MD| Energy drift per atom [K]           0.115251040667E+02   0.000000000000E+00
 MD| Potential energy [hartree]         -0.144799766680E+04  -0.144799766680E+04
 MD| Total kinetic energy [hartree]      0.198707205306E+03   0.198707205306E+03
 MD| QM kinetic energy [hartree]         0.373153043355E+00   0.373153043355E+00
 MD| Total temperature [K]                       277.166865           277.166865
 MD| QM temperature [K]                          310.493467           310.493467
 MD| ***************************************************************************

 -------------------------------------------------------------------------------
 -                                                                             -
 -                                DBCSR STATISTICS                             -
 -                                                                             -
 -------------------------------------------------------------------------------
 COUNTER                                    TOTAL       BLAS       SMM       ACC
 flops     5 x     7 x     7               134260       0.0%    100.0%      0.0%
 flops    13 x     7 x     7               295568       0.0%    100.0%      0.0%
 flops     7 x   160 x    32             14551040       0.0%    100.0%      0.0%
 flops     7 x   167 x    32             15187648       0.0%    100.0%      0.0%
 flops     7 x   160 x    39             17734080       0.0%    100.0%      0.0%
 flops     7 x   167 x    39             18509946       0.0%    100.0%      0.0%
 flops     5 x    32 x    32             28057600       0.0%    100.0%      0.0%
 flops    13 x    32 x    32             61767680       0.0%    100.0%      0.0%
 flops     7 x   160 x    64            116408320       0.0%    100.0%      0.0%
 flops     7 x   167 x    64            121501184       0.0%    100.0%      0.0%
 flops     7 x   160 x   367            123312000       0.0%    100.0%      0.0%
 flops     7 x   167 x   367            128706900       0.0%    100.0%      0.0%
 flops    72 x   160 x    32            136396800       0.0%    100.0%      0.0%
 flops    72 x   167 x    32            142364160       0.0%    100.0%      0.0%
 flops    87 x   160 x    32            164812800       0.0%    100.0%      0.0%
 flops    72 x   160 x    39            166233600       0.0%    100.0%      0.0%
 flops    90 x   160 x    32            170496000       0.0%    100.0%      0.0%
 flops    87 x   167 x    32            172023360       0.0%    100.0%      0.0%
 flops    72 x   167 x    39            173506320       0.0%    100.0%      0.0%
 flops    90 x   167 x    32            177955200       0.0%    100.0%      0.0%
 flops   105 x   160 x    32            198912000       0.0%    100.0%      0.0%
 flops    87 x   160 x    39            200865600       0.0%    100.0%      0.0%
 flops   105 x   167 x    32            207614400       0.0%    100.0%      0.0%
 flops    90 x   160 x    39            207792000       0.0%    100.0%      0.0%
 flops    87 x   167 x    39            209653470       0.0%    100.0%      0.0%
 flops    90 x   167 x    39            216882900       0.0%    100.0%      0.0%
 flops   123 x   160 x    32            233011200       0.0%    100.0%      0.0%
 flops   105 x   160 x    39            242424000       0.0%    100.0%      0.0%
 flops   123 x   167 x    32            243205440       0.0%    100.0%      0.0%
 flops     7 x   160 x   370            248640000       0.0%    100.0%      0.0%
 flops   105 x   167 x    39            253030050       0.0%    100.0%      0.0%
 flops     7 x   167 x   370            259518000       0.0%    100.0%      0.0%
 flops   123 x   160 x    39            283982400       0.0%    100.0%      0.0%
 flops   123 x   167 x    39            296406630       0.0%    100.0%      0.0%
 flops     7 x   160 x   362            364896000       0.0%    100.0%      0.0%
 flops     7 x   167 x   362            380860200       0.0%    100.0%      0.0%
 flops     5 x     7 x     5            578085200       0.0%    100.0%      0.0%
 flops     5 x     5 x    32            620116800       0.0%    100.0%      0.0%
 flops    72 x   160 x   367            659543040       0.0%    100.0%      0.0%
 flops    32 x   160 x    32            665190400       0.0%    100.0%      0.0%
 flops   118 x   160 x    32            670617600       0.0%    100.0%      0.0%
 flops    72 x   167 x   367            688398048       0.0%    100.0%      0.0%
 flops    32 x   167 x    32            694292480       0.0%    100.0%      0.0%
 flops   118 x   167 x    32            699957120       0.0%    100.0%      0.0%
 flops   131 x   160 x    32            744499200       0.0%    100.0%      0.0%
 flops     5 x     5 x    39            755767350       0.0%    100.0%      0.0%
 flops   131 x   167 x    32            777071040       0.0%    100.0%      0.0%
 flops    87 x   160 x   367            796947840       0.0%    100.0%      0.0%
 flops    32 x   160 x    39            810700800       0.0%    100.0%      0.0%
 flops   118 x   160 x    39            817315200       0.0%    100.0%      0.0%
 flops    90 x   160 x   367            824428800       0.0%    100.0%      0.0%
 flops    87 x   167 x   367            831814308       0.0%    100.0%      0.0%
 flops    32 x   167 x    39            846168960       0.0%    100.0%      0.0%
 flops   118 x   167 x    39            853072740       0.0%    100.0%      0.0%
 flops    90 x   167 x   367            860497560       0.0%    100.0%      0.0%
 flops   131 x   160 x    39            907358400       0.0%    100.0%      0.0%
 flops   131 x   167 x    39            947055330       0.0%    100.0%      0.0%
 flops   105 x   160 x   367            961833600       0.0%    100.0%      0.0%
 flops   105 x   167 x   367           1003913820       0.0%    100.0%      0.0%
 flops   144 x   160 x    32           1091174400       0.0%    100.0%      0.0%
 flops    72 x   160 x    64           1091174400       0.0%    100.0%      0.0%
 flops   123 x   160 x   367           1126719360       0.0%    100.0%      0.0%
 flops   144 x   167 x    32           1138913280       0.0%    100.0%      0.0%
 flops    72 x   167 x    64           1138913280       0.0%    100.0%      0.0%
 flops   123 x   167 x   367           1176013332       0.0%    100.0%      0.0%
 flops    13 x     7 x     5           1271350080       0.0%    100.0%      0.0%
 flops     5 x     7 x    13           1271350080       0.0%    100.0%      0.0%
 flops    87 x   160 x    64           1318502400       0.0%    100.0%      0.0%
 flops   144 x   160 x    39           1329868800       0.0%    100.0%      0.0%
 flops    72 x   160 x   370           1329868800       0.0%    100.0%      0.0%
 flops    13 x     5 x    32           1353564160       0.0%    100.0%      0.0%
 flops     5 x    13 x    32           1354246400       0.0%    100.0%      0.0%
 flops    90 x   160 x    64           1363968000       0.0%    100.0%      0.0%
 flops    87 x   167 x    64           1376186880       0.0%    100.0%      0.0%
 flops   144 x   167 x    39           1388050560       0.0%    100.0%      0.0%
 flops    72 x   167 x   370           1388050560       0.0%    100.0%      0.0%
 flops    90 x   167 x    64           1423641600       0.0%    100.0%      0.0%
 flops   105 x   160 x    64           1591296000       0.0%    100.0%      0.0%
 flops    87 x   160 x   370           1606924800       0.0%    100.0%      0.0%
 flops    13 x     5 x    39           1649656320       0.0%    100.0%      0.0%
 flops     5 x    13 x    39           1650487800       0.0%    100.0%      0.0%
 flops   105 x   167 x    64           1660915200       0.0%    100.0%      0.0%
 flops    90 x   160 x   370           1662336000       0.0%    100.0%      0.0%
 flops    87 x   167 x   370           1677227760       0.0%    100.0%      0.0%
 flops    90 x   167 x   370           1735063200       0.0%    100.0%      0.0%
 flops   123 x   160 x    64           1864089600       0.0%    100.0%      0.0%
 flops   105 x   160 x   370           1939392000       0.0%    100.0%      0.0%
 flops   123 x   167 x    64           1945643520       0.0%    100.0%      0.0%
 flops    72 x   160 x   362           1951672320       0.0%    100.0%      0.0%
 flops   105 x   167 x   370           2024240400       0.0%    100.0%      0.0%
 flops    72 x   167 x   362           2037057984       0.0%    100.0%      0.0%
 flops   123 x   160 x   370           2271859200       0.0%    100.0%      0.0%
 flops    87 x   160 x   362           2358270720       0.0%    100.0%      0.0%
 flops   123 x   167 x   370           2371253040       0.0%    100.0%      0.0%
 flops    90 x   160 x   362           2439590400       0.0%    100.0%      0.0%
 flops    87 x   167 x   362           2461445064       0.0%    100.0%      0.0%
 flops    90 x   167 x   362           2546322480       0.0%    100.0%      0.0%
 flops    13 x     7 x    13           2759588832       0.0%    100.0%      0.0%
 flops   105 x   160 x   362           2846188800       0.0%    100.0%      0.0%
 flops    13 x    13 x    32           2964503360       0.0%    100.0%      0.0%
 flops   105 x   167 x   362           2970709560       0.0%    100.0%      0.0%
 flops   118 x   160 x   367           3242753280       0.0%    100.0%      0.0%
 flops   123 x   160 x   362           3334106880       0.0%    100.0%      0.0%
 flops   118 x   167 x   367           3384623736       0.0%    100.0%      0.0%
 flops   123 x   167 x   362           3479974056       0.0%    100.0%      0.0%
 flops   131 x   160 x   367           3600005760       0.0%    100.0%      0.0%
 flops    13 x    13 x    39           3612988470       0.0%    100.0%      0.0%
 flops   131 x   167 x   367           3757506012       0.0%    100.0%      0.0%
 flops     5 x     5 x    64           4960934400       0.0%    100.0%      0.0%
 flops   144 x   160 x   367           5276344320       0.0%    100.0%      0.0%
 flops    32 x   160 x    64           5321523200       0.0%    100.0%      0.0%
 flops   118 x   160 x    64           5364940800       0.0%    100.0%      0.0%
 flops   144 x   167 x   367           5507184384       0.0%    100.0%      0.0%
 flops    32 x   167 x    64           5554339840       0.0%    100.0%      0.0%
 flops   118 x   167 x    64           5599656960       0.0%    100.0%      0.0%
 flops    32 x   160 x   367           5637120000       0.0%    100.0%      0.0%
 flops    32 x   167 x   367           5883744000       0.0%    100.0%      0.0%
 flops   131 x   160 x    64           5955993600       0.0%    100.0%      0.0%
 flops   131 x   167 x    64           6216568320       0.0%    100.0%      0.0%
 flops   118 x   160 x   370           6538521600       0.0%    100.0%      0.0%
 flops   118 x   167 x   370           6824581920       0.0%    100.0%      0.0%
 flops   131 x   160 x   370           7258867200       0.0%    100.0%      0.0%
 flops   131 x   167 x   370           7576442640       0.0%    100.0%      0.0%
 flops   144 x   160 x    64           8729395200       0.0%    100.0%      0.0%
 flops   144 x   167 x    64           9111306240       0.0%    100.0%      0.0%
 flops   118 x   160 x   362           9595722240       0.0%    100.0%      0.0%
 flops   118 x   167 x   362          10015535088       0.0%    100.0%      0.0%
 flops   144 x   160 x   370          10638950400       0.0%    100.0%      0.0%
 flops   131 x   160 x   362          10652878080       0.0%    100.0%      0.0%
 flops    13 x     5 x    64          10828513280       0.0%    100.0%      0.0%
 flops     5 x    13 x    64          10833971200       0.0%    100.0%      0.0%
 flops   144 x   167 x   370          11104404480       0.0%    100.0%      0.0%
 flops   131 x   167 x   362          11118941496       0.0%    100.0%      0.0%
 flops    32 x   160 x   370          11366400000       0.0%    100.0%      0.0%
 flops    32 x   167 x   370          11863680000       0.0%    100.0%      0.0%
 flops   144 x   160 x   362          15613378560       0.0%    100.0%      0.0%
 flops   144 x   167 x   362          16296463872       0.0%    100.0%      0.0%
 flops    32 x   160 x   362          16680960000       0.0%    100.0%      0.0%
 flops    32 x   167 x   362          17410752000       0.0%    100.0%      0.0%
 flops    13 x    13 x    64          23716026880       0.0%    100.0%      0.0%
 flops     5 x    32 x     5          26426752000       0.0%    100.0%      0.0%
 flops    13 x    32 x     5          58118860800       0.0%    100.0%      0.0%
 flops     5 x    32 x    13          58118860800       0.0%    100.0%      0.0%
 flops    13 x    32 x    13         126152632320       0.0%    100.0%      0.0%
 flops inhomo. stacks                 68993337600     100.0%      0.0%      0.0%
 flops total                       765.206029E+09       9.0%     91.0%      0.0%
 flops max/rank                    153.700282E+09      15.3%     84.7%      0.0%
 matmuls inhomo. stacks                      9468     100.0%      0.0%      0.0%
 matmuls total                           69718614       0.0%    100.0%      0.0%
 number of processed stacks                254764       3.7%     96.3%      0.0%
 average stack size                                     1.0     284.2       0.0
 marketing flops                   824.253678E+09
 -------------------------------------------------------------------------------
 # multiplications                            749
 max memory usage/rank               2.521494E+09
 # max total images/rank                        3
 # max 3D layers                                1
 # MPI messages exchanged                   31458
 MPI messages size (bytes):
  total size                        13.463695E+09
  min size                           0.000000E+00
  max size                           2.166720E+06
  average size                     427.989562E+03
 MPI breakdown and total messages size (bytes):
             size <=      128                 108                        0
       128 < size <=     8192                   4                    32768
      8192 < size <=    32768                1035                 29893880
     32768 < size <=   131072               11951                807870528
    131072 < size <=  4194304               18360              12625866896
   4194304 < size <= 16777216                   0                        0
  16777216 < size                               0                        0
 -------------------------------------------------------------------------------

 *** WARNING in dbcsr_mm.F:294 :: Using a non-square number of MPI ranks ***
 *** might lead to poor performance. Used ranks: 6 Suggested: 4 9        ***

 -------------------------------------------------------------------------------
 -                                                                             -
 -                      DBCSR MESSAGE PASSING PERFORMANCE                      -
 -                                                                             -
 -------------------------------------------------------------------------------
 ROUTINE             CALLS      AVE VOLUME [Bytes]
 MP_Bcast              145                     12.
 MP_Allreduce         4323                      9.
 MP_Alltoall          2525                 151291.
 MP_ISend            15838                 180626.
 MP_IRecv            15838                 179810.
 -------------------------------------------------------------------------------

 -------------------------------------------------------------------------------
 -                                                                             -
 -                                GRID STATISTICS                              -
 -                                                                             -
 -------------------------------------------------------------------------------
 LP    KERNEL             BACKEND                              COUNT     PERCENT
 3     collocate ortho    REF                               12386002      24.31%
 3     integrate ortho    REF                               12164336      23.87%
 2     collocate ortho    REF                                8063794      15.82%
 2     integrate ortho    REF                                7650251      15.01%
 4     integrate ortho    REF                                5403035      10.60%
 4     collocate ortho    REF                                5025548       9.86%
 5     integrate ortho    REF                                 257722       0.51%
 0     collocate general  REF                                   3036       0.01%
 1     integrate general  REF                                   3036       0.01%
 -------------------------------------------------------------------------------

 MEMORY| Estimated peak process memory [MiB]                                2405

 -------------------------------------------------------------------------------
 -                                                                             -
 -                         MESSAGE PASSING PERFORMANCE                         -
 -                                                                             -
 -------------------------------------------------------------------------------

 ROUTINE             CALLS      AVE VOLUME [Bytes]
 MP_Group                8
 MP_Bcast             8846               10232756.
 MP_Allreduce         2084                  19986.
 MP_Sync                 7
 MP_Alltoall           803              142087784.
 MP_SendRecv           872                  72198.
 MP_ISendRecv         1170                1513728.
 MP_Wait              2096
 MP_ISend              738                7679833.
 MP_IRecv              736                7699039.
 MP_Recv                27                 561408.
 -------------------------------------------------------------------------------


 -------------------------------------------------------------------------------
 -                                                                             -
 -                           R E F E R E N C E S                               -
 -                                                                             -
 -------------------------------------------------------------------------------
 
 CP2K version 8.1, the CP2K developers group (2020).
 CP2K is freely available from https://www.cp2k.org/ .

 Kuehne,Thomas D.; Iannuzzi,Marcella; Del Ben,Mauro;
 Rybkin,Vladimir V.; Seewald,Patrick; Stein,Frederick; Laino,Teodoro;
 Khaliullin,Rustam Z.; Schuett,Ole; Schiffmann,Florian; Golze,Dorothea;
 Wilhelm,Jan; Chulkov,Sergey; Bani-Hashemian,Mohammad Hossein;
 Weber,Valery; Borstnik,Urban; Taillefumier,Mathieu;
 Jakobovits,Alice Shoshana; Lazzaro,Alfio; Pabst,Hans; Mueller,Tiziano;
 Schade,Robert; Guidon,Manuel; Andermatt,Samuel; Holmberg,Nico;
 Schenter,Gregory K.; Hehn,Anna; Bussy,Augustin; Belleflamme,Fabian;
 Tabacchi,Gloria; Gloess,Andreas; Lass,Michael; Bethune,Iain;
 Mundy,Christopher J.; Plessl,Christian; Watkins,Matt;
 VandeVondele,Joost; Krack,Matthias; Hutter,Juerg. 
 The Journal of Chemical Physics, 152 (19), (2020). 
 CP2K: An electronic structure and molecular dynamics software package -
 Quickstep: Efficient and accurate electronic structure calculations.
 https://doi.org/10.1063/5.0007045

 Schuett, Ole; Messmer, Peter; Hutter, Juerg; VandeVondele, Joost. 
 Electronic Structure Calculations on Graphics Processing Units, John
 Wiley & Sons, Ltd, 173-190 (2016). 
 GPU-Accelerated Sparse Matrix-Matrix Multiplication for
 Linear Scaling Density Functional Theory.
 https://doi.org/10.1002/9781118670712.ch8

 Borstnik, U; VandeVondele, J; Weber, V; Hutter, J. 
 PARALLEL COMPUTING, 40 (5-6), 47-58 (2014). 
 Sparse matrix multiplication: The distributed block-compressed sparse
 row library.
 https://doi.org/10.1016/j.parco.2014.03.012

 Hutter, J; Iannuzzi, M; Schiffmann, F; VandeVondele, J. 
 WIREs Comput Mol Sci., 4 (1), 15-25 (2014). 
 CP2K: atomistic simulations of condensed matter systems.
 https://doi.org/10.1002/wcms.1159

 Marek, A; Blum, V; Johanni, R; Havu, V; Lang, B; Auckenthaler, T;
 Heinecke, A; Bungartz, H; Lederer, H. 
 Journal of Physics: Condensed Matter, 26 (21), (2014). 
 The ELPA library: scalable parallel eigenvalue solutions for
 electronic structure
 theory and computational science.
 https://doi.org/10.1088/0953-8984/26/21/213201

 VandeVondele, J; Hutter, J. 
 JOURNAL OF CHEMICAL PHYSICS, 127 (11), 114105 (2007). 
 Gaussian basis sets for accurate calculations on molecular systems in
 gas and condensed phases.
 https://doi.org/10.1063/1.2770708

 Kuhne, TD; Krack, M; Mohamed, FR; Parrinello, M. 
 PHYSICAL REVIEW LETTERS, 98 (6), 066401 (2007). 
 Efficient and accurate Car-Parrinello-like approach to
 Born-Oppenheimer molecular dynamics.
 https://doi.org/10.1103/PhysRevLett.98.066401

 Laino, T; Mohamed, F; Laio, A; Parrinello, M. 
 JOURNAL OF CHEMICAL THEORY AND COMPUTATION, 2 (5), 1370-1378 (2006). 
 An efficient linear-scaling electrostatic coupling for treating
 periodic boundary conditions in QM/MM simulations.
 https://doi.org/10.1021/ct6001169

 Laino, T; Mohamed, F; Laio, A; Parrinello, M. 
 JOURNAL OF CHEMICAL THEORY AND COMPUTATION, 1 (6), 1176-1184 (2005). 
 An efficient real space multigrid QM/MM electrostatic coupling.
 https://doi.org/10.1021/ct050123f

 Krack, M. 
 THEORETICAL CHEMISTRY ACCOUNTS, 114 (1-3), 145-152 (2005). 
 Pseudopotentials for H to Kr optimized for gradient-corrected
 exchange-correlation functionals.
 https://doi.org/10.1007/s00214-005-0655-y

 VandeVondele, J; Krack, M; Mohamed, F; Parrinello, M; Chassaing, T;
 Hutter, J. COMPUTER PHYSICS COMMUNICATIONS, 167 (2), 103-128 (2005). 
 QUICKSTEP: Fast and accurate density functional calculations using a
 mixed Gaussian and plane waves approach.
 https://doi.org/10.1016/j.cpc.2004.12.014

 Frigo, M; Johnson, SG. 
 PROCEEDINGS OF THE IEEE, 93 (2), 216-231 (2005). 
 The design and implementation of FFTW3.
 https://doi.org/10.1109/JPROC.2004.840301

 Kolafa, J. 
 JOURNAL OF COMPUTATIONAL CHEMISTRY, 25 (3), 335-342 (2004). 
 Time-reversible always stable predictor-corrector method for molecular dynamics of polarizable molecules.
 https://doi.org/10.1002/jcc.10385

 VandeVondele, J; Hutter, J. 
 JOURNAL OF CHEMICAL PHYSICS, 118 (10), 4365-4369 (2003). 
 An efficient orbital transformation method for electronic structure
 calculations.
 https://doi.org/10.1063/1.1543154

 Hartwigsen, C; Goedecker, S; Hutter, J. 
 PHYSICAL REVIEW B, 58 (7), 3641-3662 (1998). 
 Relativistic separable dual-space Gaussian pseudopotentials from H to Rn.
 https://doi.org/10.1103/PhysRevB.58.3641

 Lippert, G; Hutter, J; Parrinello, M. 
 MOLECULAR PHYSICS, 92 (3), 477-487 (1997). 
 A hybrid Gaussian and plane wave density functional scheme.
 https://doi.org/10.1080/002689797170220

 Goedecker, S; Teter, M; Hutter, J. 
 PHYSICAL REVIEW B, 54 (3), 1703-1710 (1996). 
 Separable dual-space Gaussian pseudopotentials.
 https://doi.org/10.1103/PhysRevB.54.1703

 ESSMANN, U; PERERA, L; BERKOWITZ, ML; DARDEN, T; LEE, H; PEDERSEN, LG. 
 JOURNAL OF CHEMICAL PHYSICS, 103 (19), 8577-8593 (1995). 
 A SMOOTH PARTICLE MESH EWALD METHOD.
 https://doi.org/10.1063/1.470117

 BLOCHL, PE. 
 JOURNAL OF CHEMICAL PHYSICS, 103 (17), 7422-7428 (1995). 
 ELECTROSTATIC DECOUPLING OF PERIODIC IMAGES OF PLANE-WAVE-EXPANDED
 DENSITIES AND DERIVED ATOMIC POINT CHARGES.
 https://doi.org/10.1063/1.470314

 BECKE, AD. PHYSICAL REVIEW A, 38 (6), 3098-3100 (1988). 
 DENSITY-FUNCTIONAL EXCHANGE-ENERGY APPROXIMATION WITH CORRECT
 ASYMPTOTIC-BEHAVIOR.
 https://doi.org/10.1103/PhysRevA.38.3098

 LEE, CT; YANG, WT; PARR, RG. 
 PHYSICAL REVIEW B, 37 (2), 785-789 (1988). 
 DEVELOPMENT OF THE COLLE-SALVETTI CORRELATION-ENERGY FORMULA INTO A
 FUNCTIONAL OF THE ELECTRON-DENSITY.
 https://doi.org/10.1103/PhysRevB.37.785


 -------------------------------------------------------------------------------
 -                                                                             -
 -                                T I M I N G                                  -
 -                                                                             -
 -------------------------------------------------------------------------------
 SUBROUTINE                       CALLS  ASD         SELF TIME        TOTAL TIME
                                MAXIMUM       AVERAGE  MAXIMUM  AVERAGE  MAXIMUM
 CP2K                                 1  1.0    0.297    0.305  563.997  563.999
 qs_mol_dyn_low                       1  2.0    0.008    0.008  488.689  490.215
 velocity_verlet                      1  3.0    0.006    0.006  341.396  341.486
 qs_forces                            2  3.5    0.001    0.001  276.237  276.237
 qs_energies                          2  4.5    0.000    0.000  261.638  261.639
 scf_env_do_scf                       2  5.5    0.000    0.000  248.065  248.066
 scf_env_do_scf_inner_loop           37  6.9    0.001    0.003  233.225  233.229
 rebuild_ks_matrix                   39  8.7    0.000    0.000  152.101  152.113
 qs_ks_build_kohn_sham_matrix        39  9.7    0.005    0.006  152.101  152.113
 qs_ks_update_qs_env                 39  7.9    0.000    0.000  140.169  140.181
 qmmm_el_coupling                     2  3.5    0.000    0.000  111.122  111.130
 qmmm_elec_with_gaussian              2  4.5    0.015    0.015  111.115  111.122
 qmmm_elec_with_gaussian_low          2  5.5    0.000    0.000   98.952  110.167
 qs_rho_update_rho                   39  7.9    0.000    0.000  101.961  101.977
 calculate_rho_elec                  39  8.9    0.733    0.736  101.961  101.977
 qmmm_forces                          2  3.5    0.006    0.006   87.644   87.645
 qmmm_forces_with_gaussian            2  4.5    0.031    0.033   79.738   86.563
 qmmm_force_with_gaussian_low         2  5.5    0.000    0.000   78.522   85.347
 grid_collocate_task_list            39  9.9   82.640   85.228   82.640   85.228
 qmmm_env_create                      1  2.0   11.435   11.749   73.444   73.449
 pw_transfer                        802 12.4    0.077    0.087   70.832   71.355
 fft_wrap_pw1pw2                    675 13.4    0.010    0.011   69.740   70.240
 fft_wrap_pw1pw2_150                433 14.6    7.067    7.249   68.377   68.926
 sum_up_and_integrate                39 10.7    0.269    0.275   67.195   67.206
 integrate_v_rspace                  39 11.7    0.001    0.001   66.925   66.934
 qmmm_elec_gaussian_low_G             2  6.5   59.297   65.592   59.297   65.592
 qmmm_forces_gaussian_low_R           2  6.5    0.000    0.000   57.600   64.783
 qmmm_forces_with_gaussian_LG         2  7.5   57.600   64.783   57.600   64.783
 grid_integrate_task_list            39 12.7   55.228   57.041   55.228   57.041
 fist_init                            1  3.0    0.000    0.000   56.993   56.994
 qs_vxc_create                       39 10.7    0.001    0.001   55.219   55.225
 xc_vxc_pw_create                    39 11.7    1.217    1.313   55.218   55.224
 fft3d_ps                           675 15.4   37.602   38.387   51.402   52.303
 qmmm_elec_gaussian_low_R             2  6.5    0.000    0.000   39.655   44.575
 qmmm_elec_with_gaussian_LG           2  7.5   39.655   44.575   39.655   44.575
 force_field_control                  1  4.0    0.000    0.000   34.922   35.331
 rdparm_amber_8                       2  6.5   27.440   28.186   32.641   32.772
 xc_rho_set_and_dset_create          39 12.7    1.740    2.061   27.900   28.284
 qmmm_forces_gaussian_low_G           2  6.5   20.922   24.993   20.922   24.993
 density_rs2pw                       39  9.9    0.002    0.002   18.416   22.816
 topology_control                     1  4.0    0.000    0.000   21.743   22.160
 qs_ks_ddapc                         39 10.7    0.001    0.001   20.963   21.049
 force_field_pack                     1  5.0    0.015    0.015   17.789   18.087
 read_force_field_amber               1  5.0    0.006    0.006   17.061   17.192
 connectivity_control                 2  4.0    0.000    0.000   16.539   16.563
 read_connectivity_amber              1  6.0    0.000    0.000   15.586   15.589
 init_scf_loop                        2  6.5    0.000    0.000   14.832   14.832
 mp_sync                              7  7.1   11.210   14.568   11.210   14.568
 cp_ddapc_apply_CD                   39 11.7    0.008    0.043   14.322   14.322
 rs_pw_transfer                     324 12.1    0.004    0.005    8.435   12.730
 qs_ks_update_qs_env_forces           2  4.5    0.000    0.000   12.010   12.010
 force_field_pack_ub                  1  6.0   11.621   11.678   11.621   11.678
 fist_calc_energy_force               2  3.5    0.015    0.016   11.347   11.348
 mp_sum_dm                          258  4.8    8.095   11.318    8.095   11.318
 -------------------------------------------------------------------------------

 The number of warnings for this run is : 1
 
 -------------------------------------------------------------------------------
  **** **** ******  **  PROGRAM ENDED AT                 2021-04-09 12:40:02.855
 ***** ** ***  *** **   PROGRAM RAN ON                                   r1i6n17
 **    ****   ******    PROGRAM RAN BY                                    hollyj
 ***** **    ** ** **   PROGRAM PROCESS ID                                 23712
  **** **  *******  **  PROGRAM STOPPED IN /lustre/home/w68/hollyj/CP2K/Cirrus/C
                                           PU/cp2kMD/ClC-253-BLYP/1STEPS/1NODES/
                                           36CPN/6THREADS
