 DBCSR| CPU Multiplication driver                                           XSMM
 DBCSR| Multrec recursion limit                                              512
 DBCSR| Multiplication stack size                                           1000
 DBCSR| Maximum elements for images                                    UNLIMITED
 DBCSR| Multiplicative factor virtual images                                   1
 DBCSR| Use multiplication densification                                       T
 DBCSR| Multiplication size stacks                                             3
 DBCSR| Use memory pool for CPU allocation                                     F
 DBCSR| Number of 3D layers                                               SINGLE
 DBCSR| Use MPI memory allocation                                              F
 DBCSR| Use RMA algorithm                                                      F
 DBCSR| Use Communication thread                                               T
 DBCSR| Communication thread load                                             87
 DBCSR| MPI: My node id                                                        0
 DBCSR| MPI: Number of nodes                                                  36
 DBCSR| OMP: Current number of threads                                         1
 DBCSR| OMP: Max number of threads                                             1
 DBCSR| Split modifier for TAS multiplication algorithm                  1.0E+00


  **** **** ******  **  PROGRAM STARTED AT               2021-04-19 13:29:21.451
 ***** ** ***  *** **   PROGRAM STARTED ON                               r1i4n24
 **    ****   ******    PROGRAM STARTED BY                                hollyj
 ***** **    ** ** **   PROGRAM PROCESS ID                                 36404
  **** **  *******  **  PROGRAM STARTED IN /lustre/home/w68/hollyj/CP2K/Cirrus/C
                                           PU/cp2kMD/CBD_PHY-PBE0/1STEPS/1NODES/
                                           36CPN/1THREADS

 CP2K| version string:                                          CP2K version 8.1
 CP2K| source code revision number:                                  git:0b61f2f
 CP2K| cp2kflags: omp libint fftw3 libxc elpa parallel mpi3 scalapack xsmm spgli
 CP2K|            b mkl
 CP2K| is freely available from                            https://www.cp2k.org/
 CP2K| Program compiled at                           Mon Feb 1 13:14:42 GMT 2021
 CP2K| Program compiled on                                         cirrus-login1
 CP2K| Program compiled for                                           Cirrus-gcc
 CP2K| Data directory path       /lustre/home/w68/hollyj/CP2K/v8.1/cp2k-8.1/data
 CP2K| Input file name                                          CBD_PHY-cp2k.inp

 GLOBAL| Force Environment number                                              1
 GLOBAL| Basis set file name                                           HFX_BASIS
 GLOBAL| Potential file name                                           POTENTIAL
 GLOBAL| MM Potential file name                                     MM_POTENTIAL
 GLOBAL| Coordinate file name                                        CBD_PHY.pdb
 GLOBAL| Method name                                                        CP2K
 GLOBAL| Project name                                               CBD_PHY-PBE0
 GLOBAL| Preferred FFT library                                             FFTW3
 GLOBAL| Preferred diagonalization lib.                                     ELPA
 GLOBAL| Run type                                                             MD
 GLOBAL| All-to-all communication in single precision                          F
 GLOBAL| FFTs using library dependent lengths                                  F
 GLOBAL| Global print level                                                  LOW
 GLOBAL| MPI I/O enabled                                                       T
 GLOBAL| Total number of message passing processes                            36
 GLOBAL| Number of threads for this process                                    1
 GLOBAL| This output is from process                                           0
 GLOBAL| CPU model name                Intel(R) Xeon(R) CPU E5-2695 v4 @ 2.10GHz
 GLOBAL| CPUID                                                              1002
 GLOBAL| Compiled for CPUID                                                 1001

 *** HINT in environment.F:802 :: The compiler target flags (x86_avx) used ***
 *** to build this binary cannot exploit all extensions of this CPU model  ***
 *** (x86_avx2). Consider compiler target flags as part of FCFLAGS and     ***
 *** CFLAGS (ARCH file).                                                   ***


 MEMORY| system memory details [Kb]
 MEMORY|                        rank 0           min           max       average
 MEMORY| MemTotal            263692180     263692180     263692180     263692180
 MEMORY| MemFree             258894840     258894532     258894840     258894540
 MEMORY| Buffers                     0             0             0             0
 MEMORY| Cached                 504496        504476        504496        504476
 MEMORY| Slab                   870764        870752        870764        870752
 MEMORY| SReclaimable           206060        206060        206060        206060
 MEMORY| MemLikelyFree       259605396     259605068     259605396     259605077



                      ************* ******** ***********   
                     ************* **********************  
                     ****     **** ****      ***********   
                     ******** ****  *******     ****       
                     *******  ****   *******   ****        
                     ****     ****       ****  ****        
                     ****     **** **********  ****        
                      ****     **** ********    ****       
                     FRONTIERS IN SIMULATION TECHNOLOGY    
                                                           
                        C.J. Mundy, S. Balasubramanian,    
                     Ken Bagchi, J. Hutter, Ari Seitsonen  
                      IFW Kuo, T. Laino, J. VandeVondele   
                                 Version 1.0               

                                                           


 EWALD| Summation is done by:                                               SPME
 EWALD| Alpha parameter [       ANGSTROM^-1]                              0.4000
 EWALD| Real Space Cutoff [          ANGSTROM]                            8.4348
 EWALD| G-space max. Miller index                         80        80        80
 EWALD| Spline interpolation order                                             6

 FORCEFIELD| WARNING: A non Critical ForceField parameter is missing! CP2K GOES!
 FORCEFIELD| Non critical parameters are:Urey-Bradley,Torsions,Impropers, Opbends and 1-4
 FORCEFIELD| All missing parameters will not contribute to the potential energy!
 FORCEFIELD| Activate the print key FF_INFO to have a list of missing parameters

 CHARGE_INFO| Total Charge of the Classical System:                    -0.825808

 SPLINE_INFO| Generating 101926 splines for NONBONDED14 interactions 
              Due to 451 different atomic kinds
  ...10192  ...20384  ...30576  ...40768  ...50960  ...61152  ...71344  ...81536  ...91728  ...101920
 SPLINE_INFO| Number of unique splines computed:            301
 SPLINE_INFO| Done

 SPLINE_INFO| Generating 101926 splines for NONBONDED interactions 
              Due to 451 different atomic kinds
  ...10192  ...20384  ...30576  ...40768  ...50960  ...61152  ...71344  ...81536  ...91728  ...101920
 SPLINE_INFO| Number of unique splines computed:            301
 SPLINE_INFO| Done

 *******************************************************************************
 *******************************************************************************
 **                                                                           **
 **     #####                         ##              ##                      **
 **    ##   ##            ##          ##              ##                      **
 **   ##     ##                       ##            ######                    **
 **   ##     ##  ##   ##  ##   #####  ##  ##   ####   ##    #####    #####    **
 **   ##     ##  ##   ##  ##  ##      ## ##   ##      ##   ##   ##  ##   ##   **
 **   ##  ## ##  ##   ##  ##  ##      ####     ###    ##   ######   ######    **
 **    ##  ###   ##   ##  ##  ##      ## ##      ##   ##   ##       ##        **
 **     #######   #####   ##   #####  ##  ##  ####    ##    #####   ##        **
 **           ##                                                    ##        **
 **                                                                           **
 **                                                ... make the atoms dance   **
 **                                                                           **
 **            Copyright (C) by CP2K developers group (2000 - 2020)           **
 **                      J. Chem. Phys. 152, 194103 (2020)                    **
 **                                                                           **
 *******************************************************************************


 TOTAL NUMBERS AND MAXIMUM NUMBERS

  Total number of            - Atomic kinds:                                   5
                             - Atoms:                                         68
                             - Shell sets:                                   340
                             - Shells:                                       445
                             - Primitive Cartesian functions:                476
                             - Cartesian basis functions:                   1137
                             - Spherical basis functions:                   1067

  Maximum angular momentum of- Orbital basis functions:                        2
                             - Local part of the GTH pseudopotential:          2
                             - Non-local part of the GTH pseudopotential:      0


 SCF PARAMETERS         Density guess:                                   RESTART
                        --------------------------------------------------------
                        max_scf:                                              30
                        max_scf_history:                                       0
                        max_diis:                                              4
                        --------------------------------------------------------
                        eps_scf:                                        1.00E-06
                        eps_scf_history:                                0.00E+00
                        eps_diis:                                       1.00E-01
                        eps_eigval:                                     1.00E-05
                        --------------------------------------------------------
                        level_shift [a.u.]:                                 0.00
                        --------------------------------------------------------
                        Outer loop SCF in use 
                        No variables optimised in outer loop
                        eps_scf                                         1.00E-06
                        max_scf                                               20
                        No outer loop optimization
                        step_size                                       5.00E-01

 *******************************************************************************
 *******************************************************************************
 **                                                                           **
 **             #######  ##     ## ##     ## ##     ##                        **
 **            ##     ## ###   ### ###   ### ###   ###                        **
 **            ##     ## #### #### #### #### #### ####                        **
 **            ##     ## ## ### ## ## ### ## ## ### ##                        **
 **            ##  ## ## ##     ## ##     ## ##     ##                        **
 **            ##    ##  ##     ## ##     ## ##     ##  T.Laino and F.Mohamed **
 **             ##### ## ##     ## ##     ## ##     ##  2005 - 2015           **
 **                                                                           **
 **                                                     Calculation Started.. **
 *******************************************************************************
 *******************************************************************************

 MD_PAR| Molecular dynamics protocol (MD input parameters)
 MD_PAR| Ensemble type                                                       NVE
 MD_PAR| Number of time steps                                                  1
 MD_PAR| Time step [fs]                                                 1.000000
 MD_PAR| Temperature [K]                                              300.000000
 MD_PAR| Temperature tolerance [K]                                      0.000000
 MD_PAR| Print MD information every                                    1 step(s)
 MD_PAR| File type   Print frequency [steps]                          File names
 MD_PAR| Coordinates          1                           CBD_PHY-PBE0-pos-1.xyz
 MD_PAR| Velocities           1                           CBD_PHY-PBE0-vel-1.xyz
 MD_PAR| Energies             1                              CBD_PHY-PBE0-1.ener
 MD_PAR| Dump                20                           CBD_PHY-PBE0-1.restart

 ROT| Rotational analysis information
 ROT| Principal axes and moments of inertia [a.u.]
 ROT|                           1                   2                   3
 ROT| Eigenvalues      1.56283164001E+13   1.56407408488E+13   1.56663418804E+13
 ROT|      x              0.901637047331     -0.018153263569      0.432112362589
 ROT|      y              0.323714777231      0.690893927917     -0.646431994389
 ROT|      z             -0.286808957117      0.722728191915      0.628812040859
 ROT| Number of rotovibrational vectors                                        6

 DOF| Calculation of degrees of freedom
 DOF| Number of atoms                                                     167923
 DOF| Number of intramolecular constraints                                     0
 DOF| Number of intermolecular constraints                                     0
 DOF| Invariants (translations + rotations)                                    3
 DOF| Degrees of freedom                                                  503766

 DOF| Restraints information
 DOF| Number of intramolecular restraints                                      0
 DOF| Number of intermolecular restraints                                      0

 MD_VEL| Velocities initialization
 MD_VEL| Initial temperature [K]                                      300.000000
 MD_VEL| COM velocity            -0.0000000000     0.0000000000     0.0000000000

  Translating the system in order to center the QM fragment in the QM box.

 Number of electrons:                                                        180
 Number of occupied orbitals:                                                 90
 Number of molecular orbitals:                                                90

 Number of orbital functions:                                               1067
 Number of independent orbital functions:                                   1067

 Extrapolation method: initial_guess


 SCF WAVEFUNCTION OPTIMIZATION

  ----------------------------------- OT ---------------------------------------
  Minimizer      : DIIS                : direct inversion
                                         in the iterative subspace
                                         using   7 DIIS vectors
                                         safer DIIS on
  Preconditioner : FULL_ALL            : diagonalization, state selective
  Precond_solver : DEFAULT
  stepsize       :    0.15000000                  energy_gap     :    0.08000000
  eps_taylor     :   0.10000E-15                  max_taylor     :             4
  ----------------------------------- OT ---------------------------------------

  Step     Update method      Time    Convergence         Total energy    Change
  ------------------------------------------------------------------------------
  Decoupling Energy:                                               0.0370647021
  Recoupling Energy:                                              -0.0063741479
     1 OT DIIS     0.15E+00   45.4     0.00129057      -255.9257316527 -2.56E+02
  Decoupling Energy:                                               0.0370576004
  Recoupling Energy:                                              -0.0063740314
     2 OT DIIS     0.15E+00    8.2     0.00057761      -255.9419521969 -1.62E-02
  Decoupling Energy:                                               0.0369596417
  Recoupling Energy:                                              -0.0063730135
     3 OT DIIS     0.15E+00    8.2     0.00038348      -255.9451217312 -3.17E-03
  Decoupling Energy:                                               0.0369795469
  Recoupling Energy:                                              -0.0063732416
     4 OT DIIS     0.15E+00    8.2     0.00009866      -255.9458275763 -7.06E-04
  Decoupling Energy:                                               0.0369716948
  Recoupling Energy:                                              -0.0063731487
     5 OT DIIS     0.15E+00    8.2     0.00003992      -255.9458779680 -5.04E-05
  Decoupling Energy:                                               0.0369737640
  Recoupling Energy:                                              -0.0063731649
     6 OT DIIS     0.15E+00    8.2     0.00001793      -255.9458894164 -1.14E-05
  Decoupling Energy:                                               0.0369741808
  Recoupling Energy:                                              -0.0063731680
     7 OT DIIS     0.15E+00    8.2     0.00000621      -255.9458922932 -2.88E-06
  Decoupling Energy:                                               0.0369727127
  Recoupling Energy:                                              -0.0063731518
     8 OT DIIS     0.15E+00    8.2     0.00000242      -255.9458926323 -3.39E-07
  Decoupling Energy:                                               0.0369731060
  Recoupling Energy:                                              -0.0063731556
     9 OT DIIS     0.15E+00    8.2     0.00000111      -255.9458926816 -4.94E-08
  Decoupling Energy:                                               0.0369728227
  Recoupling Energy:                                              -0.0063731526
    10 OT DIIS     0.15E+00    8.2     0.00000048      -255.9458926918 -1.02E-08

  *** SCF run converged in    10 steps ***


  Electronic density on regular grids:       -179.9999999999        0.0000000001
  Core density on regular grids:              180.9999999999       -0.0000000001
  Total charge density on r-space grids:        1.0000000000
  Total charge density g-space grids:           1.0000000000

  Overlap energy of the core charge distribution:               0.00001951532734
  Self energy of the core charge distribution:               -615.71576003586028
  Core Hamiltonian energy:                                    191.01363234740421
  Hartree energy:                                             248.20663852140137
  Exchange-correlation energy:                                -61.38430758347393
  Hartree-Fock Exchange energy:                               -18.10821017492074
  QM/MM Electrostatic energy:                                   0.04209471828299

  Total energy:                                              -255.94589269183902

  outer SCF iter =    1 RMS gradient =   0.48E-06 energy =       -255.9458926918
  outer SCF loop converged in   1 iterations or   10 steps

  Decoupling Energy:                                               0.0369728028
  Recoupling Energy:                                              -0.0063731523

 ENERGY| Total FORCE_EVAL ( QMMM ) energy [a.u.]:          -1088.110859623981924

 MD_INI| MD initialization
 MD_INI| Potential energy [hartree]                          -0.108811085962E+04
 MD_INI| Total kinetic energy [hartree]                       0.239300084734E+03
 MD_INI| QM kinetic energy [hartree]                          0.106639360339E+00
 MD_INI| Total temperature [K]                                        300.000000
 MD_INI| QM temperature [K]                                           330.137318
 MD_INI| Cell volume [bohr^3]                                 1.137316355424E+07
 MD_INI| Cell volume [ang^3]                                  1.685328937712E+06
 MD_INI| Cell lengths [bohr]      2.24884969E+02  2.24884969E+02  2.24884969E+02
 MD_INI| Cell lengths [ang]       1.19004000E+02  1.19004000E+02  1.19004000E+02
 MD_INI| Cell angles [deg]        9.00000000E+01  9.00000000E+01  9.00000000E+01

  Translating the system in order to center the QM fragment in the QM box.

 Number of electrons:                                                        180
 Number of occupied orbitals:                                                 90
 Number of molecular orbitals:                                                90

 Number of orbital functions:                                               1067
 Number of independent orbital functions:                                   1067

 Extrapolation method: ASPC


 SCF WAVEFUNCTION OPTIMIZATION

  ----------------------------------- OT ---------------------------------------
  Minimizer      : DIIS                : direct inversion
                                         in the iterative subspace
                                         using   7 DIIS vectors
                                         safer DIIS on
  Preconditioner : FULL_ALL            : diagonalization, state selective
  Precond_solver : DEFAULT
  stepsize       :    0.15000000                  energy_gap     :    0.08000000
  eps_taylor     :   0.10000E-15                  max_taylor     :             4
  ----------------------------------- OT ---------------------------------------

  Step     Update method      Time    Convergence         Total energy    Change
  ------------------------------------------------------------------------------
  Decoupling Energy:                                               0.0370014666
  Recoupling Energy:                                              -0.0063734172
     1 OT DIIS     0.15E+00   40.1     0.00075899      -255.7182133354 -2.56E+02
  Decoupling Energy:                                               0.0370082379
  Recoupling Energy:                                              -0.0063735355
     2 OT DIIS     0.15E+00    8.1     0.00032685      -255.7237311671 -5.52E-03
  Decoupling Energy:                                               0.0370087414
  Recoupling Energy:                                              -0.0063735590
     3 OT DIIS     0.15E+00    8.1     0.00019068      -255.7247684899 -1.04E-03
  Decoupling Energy:                                               0.0370199883
  Recoupling Energy:                                              -0.0063736817
     4 OT DIIS     0.15E+00    8.1     0.00006054      -255.7249609229 -1.92E-04
  Decoupling Energy:                                               0.0370216763
  Recoupling Energy:                                              -0.0063737045
     5 OT DIIS     0.15E+00    8.1     0.00001954      -255.7249774875 -1.66E-05
  Decoupling Energy:                                               0.0370210006
  Recoupling Energy:                                              -0.0063736984
     6 OT DIIS     0.15E+00    8.1     0.00000817      -255.7249797459 -2.26E-06
  Decoupling Energy:                                               0.0370221930
  Recoupling Energy:                                              -0.0063737124
     7 OT DIIS     0.15E+00    8.1     0.00000308      -255.7249802079 -4.62E-07
  Decoupling Energy:                                               0.0370222383
  Recoupling Energy:                                              -0.0063737132
     8 OT DIIS     0.15E+00    8.1     0.00000136      -255.7249802852 -7.72E-08
  Decoupling Energy:                                               0.0370224659
  Recoupling Energy:                                              -0.0063737159
     9 OT DIIS     0.15E+00    8.1     0.00000058      -255.7249803009 -1.57E-08

  *** SCF run converged in     9 steps ***


  Electronic density on regular grids:       -180.0000000000        0.0000000000
  Core density on regular grids:              180.9999999999       -0.0000000001
  Total charge density on r-space grids:        0.9999999999
  Total charge density g-space grids:           0.9999999999

  Overlap energy of the core charge distribution:               0.00002422740857
  Self energy of the core charge distribution:               -615.71576003586028
  Core Hamiltonian energy:                                    191.21094926002604
  Hartree energy:                                             248.07774924696128
  Exchange-correlation energy:                                -61.42683515948821
  Hartree-Fock Exchange energy:                               -18.12283152230443
  QM/MM Electrostatic energy:                                   0.25172368236180

  Total energy:                                              -255.72498030089528

  outer SCF iter =    1 RMS gradient =   0.58E-06 energy =       -255.7249803009
  outer SCF loop converged in   1 iterations or    9 steps

  Decoupling Energy:                                               0.0370224945
  Recoupling Energy:                                              -0.0063737164

 ENERGY| Total FORCE_EVAL ( QMMM ) energy [a.u.]:          -1059.962356476058176

 MD| ***************************************************************************
 MD| Step number                                                               1
 MD| Time [fs]                                                          1.000000
 MD| Conserved quantity [hartree]                            -0.841461427262E+03
 MD| ---------------------------------------------------------------------------
 MD|                                          Instantaneous             Averages
 MD| CPU time per MD step [s]                    690.461741           690.461741
 MD| Energy drift per atom [K]           0.138202489215E+02   0.000000000000E+00
 MD| Potential energy [hartree]         -0.105996235648E+04  -0.105996235648E+04
 MD| Total kinetic energy [hartree]      0.218500929214E+03   0.218500929214E+03
 MD| QM kinetic energy [hartree]         0.121347088628E+00   0.121347088628E+00
 MD| Total temperature [K]                       273.925013           273.925013
 MD| QM temperature [K]                          375.669943           375.669943
 MD| ***************************************************************************

 -------------------------------------------------------------------------------
 -                                                                             -
 -                                DBCSR STATISTICS                             -
 -                                                                             -
 -------------------------------------------------------------------------------
 COUNTER                                    TOTAL       BLAS       SMM       ACC
 flops     9 x    26 x    26               803088       0.0%    100.0%      0.0%
 flops    22 x    26 x    26              2082080       0.0%    100.0%      0.0%
 flops     9 x    32 x    32              2433024       0.0%    100.0%      0.0%
 flops    22 x    32 x    32              6307840       0.0%    100.0%      0.0%
 flops    26 x    26 x    26              6608576       0.0%    100.0%      0.0%
 flops    26 x    26 x    32             16267264       0.0%    100.0%      0.0%
 flops    26 x    32 x    26             16267264       0.0%    100.0%      0.0%
 flops    32 x    26 x    26             16267264       0.0%    100.0%      0.0%
 flops    26 x    26 x   182             19192992       0.0%    100.0%      0.0%
 flops   182 x    26 x    26             23376080       0.0%    100.0%      0.0%
 flops    32 x    32 x    26             40042496       0.0%    100.0%      0.0%
 flops    26 x    32 x    32             40042496       0.0%    100.0%      0.0%
 flops    32 x    26 x    32             40042496       0.0%    100.0%      0.0%
 flops    26 x    32 x   182             47244288       0.0%    100.0%      0.0%
 flops    32 x    26 x   182             47244288       0.0%    100.0%      0.0%
 flops     9 x     9 x    26             54347436       0.0%    100.0%      0.0%
 flops   182 x    26 x    32             57541120       0.0%    100.0%      0.0%
 flops   182 x    32 x    26             57541120       0.0%    100.0%      0.0%
 flops   182 x    26 x   182             72342816       0.0%    100.0%      0.0%
 flops    26 x    26 x   177             93328560       0.0%    100.0%      0.0%
 flops    32 x    32 x    32             98566144       0.0%    100.0%      0.0%
 flops   177 x    26 x    26            113669400       0.0%    100.0%      0.0%
 flops    32 x    32 x   182            116293632       0.0%    100.0%      0.0%
 flops     9 x     9 x    32            133778304       0.0%    100.0%      0.0%
 flops    22 x     9 x    26            136638216       0.0%    100.0%      0.0%
 flops     9 x    22 x    26            136875024       0.0%    100.0%      0.0%
 flops   182 x    32 x    32            141639680       0.0%    100.0%      0.0%
 flops   182 x    32 x   182            178074624       0.0%    100.0%      0.0%
 flops    26 x    32 x   177            229731840       0.0%    100.0%      0.0%
 flops    32 x    26 x   177            229731840       0.0%    100.0%      0.0%
 flops     9 x    26 x     9            238517136       0.0%    100.0%      0.0%
 flops   177 x    32 x    26            279801600       0.0%    100.0%      0.0%
 flops   177 x    26 x    32            279801600       0.0%    100.0%      0.0%
 flops    22 x     9 x    32            336340224       0.0%    100.0%      0.0%
 flops     9 x    22 x    32            336923136       0.0%    100.0%      0.0%
 flops   182 x    26 x   177            351776880       0.0%    100.0%      0.0%
 flops   177 x    26 x   182            351776880       0.0%    100.0%      0.0%
 flops    22 x    22 x    26            364684320       0.0%    100.0%      0.0%
 flops    32 x    32 x   177            565493760       0.0%    100.0%      0.0%
 flops     9 x    32 x     9            587119104       0.0%    100.0%      0.0%
 flops    22 x    26 x     9            618377760       0.0%    100.0%      0.0%
 flops     9 x    26 x    22            618377760       0.0%    100.0%      0.0%
 flops   177 x    32 x    32            688742400       0.0%    100.0%      0.0%
 flops   177 x    32 x   182            865912320       0.0%    100.0%      0.0%
 flops   182 x    32 x   177            865912320       0.0%    100.0%      0.0%
 flops    22 x    22 x    32            897684480       0.0%    100.0%      0.0%
 flops     9 x    32 x    22           1522160640       0.0%    100.0%      0.0%
 flops    22 x    32 x     9           1522160640       0.0%    100.0%      0.0%
 flops    22 x    26 x    22           1603201600       0.0%    100.0%      0.0%
 flops   177 x    26 x   177           1710563400       0.0%    100.0%      0.0%
 flops    22 x    32 x    22           3946342400       0.0%    100.0%      0.0%
 flops   177 x    32 x   177           4210617600       0.0%    100.0%      0.0%
 flops inhomo. stacks                           0       0.0%      0.0%      0.0%
 flops total                        24.936609E+09       0.0%    100.0%      0.0%
 flops max/rank                      1.510555E+09       0.0%    100.0%      0.0%
 matmuls inhomo. stacks                         0       0.0%      0.0%      0.0%
 matmuls total                             902580       0.0%    100.0%      0.0%
 number of processed stacks                 51081       0.0%    100.0%      0.0%
 average stack size                                     0.0      17.7       0.0
 marketing flops                    27.310182E+09
 -------------------------------------------------------------------------------
 # multiplications                            482
 max memory usage/rank               2.421363E+09
 # max total images/rank                        1
 # max 3D layers                                1
 # MPI messages exchanged                  173520
 MPI messages size (bytes):
  total size                         5.943129E+09
  min size                           0.000000E+00
  max size                         264.992000E+03
  average size                      34.250395E+03
 MPI breakdown and total messages size (bytes):
             size <=      128              100005                        0
       128 < size <=     8192               21225                152821920
      8192 < size <=    32768                   0                        0
     32768 < size <=   131072               35370               1509591600
    131072 < size <=  4194304               16920               4280718640
   4194304 < size <= 16777216                   0                        0
  16777216 < size                               0                        0
 -------------------------------------------------------------------------------
 -                                                                             -
 -                      DBCSR MESSAGE PASSING PERFORMANCE                      -
 -                                                                             -
 -------------------------------------------------------------------------------
 ROUTINE             CALLS      AVE VOLUME [Bytes]
 MP_Bcast               53                     12.
 MP_Allreduce         2657                      9.
 MP_Alltoall          1727                  10156.
 MP_ISend            11560                  17754.
 MP_IRecv            11560                  16944.
 -------------------------------------------------------------------------------

 -------------------------------------------------------------------------------
 -                                                                             -
 -                                GRID STATISTICS                              -
 -                                                                             -
 -------------------------------------------------------------------------------
 LP    KERNEL             BACKEND                              COUNT     PERCENT
 2     collocate ortho    REF                                 375167      19.16%
 2     integrate ortho    REF                                 369367      18.86%
 1     collocate ortho    REF                                 314273      16.05%
 1     integrate ortho    REF                                 293244      14.97%
 3     integrate ortho    REF                                 186579       9.53%
 3     collocate ortho    REF                                 166727       8.51%
 0     collocate ortho    REF                                  93461       4.77%
 0     integrate ortho    REF                                  84559       4.32%
 4     integrate ortho    REF                                  38185       1.95%
 4     collocate ortho    REF                                  24654       1.26%
 0     collocate general  REF                                   4896       0.25%
 1     integrate general  REF                                   4896       0.25%
 5     integrate ortho    REF                                   2348       0.12%
 -------------------------------------------------------------------------------

 MEMORY| Estimated peak process memory [MiB]                                2310

 -------------------------------------------------------------------------------
 -                                                                             -
 -                         MESSAGE PASSING PERFORMANCE                         -
 -                                                                             -
 -------------------------------------------------------------------------------

 ROUTINE             CALLS      AVE VOLUME [Bytes]
 MP_Group                8
 MP_Bcast             6728               10901594.
 MP_Allreduce         1041                1123974.
 MP_Sync               130
 MP_Alltoall           441               32396748.
 MP_ISendRecv         4760                 105091.
 MP_Wait              6874
 MP_ISend             1730                 965625.
 MP_IRecv             1728                 965828.
 MP_Recv                10                 128040.
 -------------------------------------------------------------------------------


 -------------------------------------------------------------------------------
 -                                                                             -
 -                           R E F E R E N C E S                               -
 -                                                                             -
 -------------------------------------------------------------------------------
 
 CP2K version 8.1, the CP2K developers group (2020).
 CP2K is freely available from https://www.cp2k.org/ .

 Kuehne,Thomas D.; Iannuzzi,Marcella; Del Ben,Mauro;
 Rybkin,Vladimir V.; Seewald,Patrick; Stein,Frederick; Laino,Teodoro;
 Khaliullin,Rustam Z.; Schuett,Ole; Schiffmann,Florian; Golze,Dorothea;
 Wilhelm,Jan; Chulkov,Sergey; Bani-Hashemian,Mohammad Hossein;
 Weber,Valery; Borstnik,Urban; Taillefumier,Mathieu;
 Jakobovits,Alice Shoshana; Lazzaro,Alfio; Pabst,Hans; Mueller,Tiziano;
 Schade,Robert; Guidon,Manuel; Andermatt,Samuel; Holmberg,Nico;
 Schenter,Gregory K.; Hehn,Anna; Bussy,Augustin; Belleflamme,Fabian;
 Tabacchi,Gloria; Gloess,Andreas; Lass,Michael; Bethune,Iain;
 Mundy,Christopher J.; Plessl,Christian; Watkins,Matt;
 VandeVondele,Joost; Krack,Matthias; Hutter,Juerg. 
 The Journal of Chemical Physics, 152 (19), (2020). 
 CP2K: An electronic structure and molecular dynamics software package -
 Quickstep: Efficient and accurate electronic structure calculations.
 https://doi.org/10.1063/5.0007045

 Schuett, Ole; Messmer, Peter; Hutter, Juerg; VandeVondele, Joost. 
 Electronic Structure Calculations on Graphics Processing Units, John
 Wiley & Sons, Ltd, 173-190 (2016). 
 GPU-Accelerated Sparse Matrix-Matrix Multiplication for
 Linear Scaling Density Functional Theory.
 https://doi.org/10.1002/9781118670712.ch8

 Borstnik, U; VandeVondele, J; Weber, V; Hutter, J. 
 PARALLEL COMPUTING, 40 (5-6), 47-58 (2014). 
 Sparse matrix multiplication: The distributed block-compressed sparse
 row library.
 https://doi.org/10.1016/j.parco.2014.03.012

 Hutter, J; Iannuzzi, M; Schiffmann, F; VandeVondele, J. 
 WIREs Comput Mol Sci., 4 (1), 15-25 (2014). 
 CP2K: atomistic simulations of condensed matter systems.
 https://doi.org/10.1002/wcms.1159

 Marek, A; Blum, V; Johanni, R; Havu, V; Lang, B; Auckenthaler, T;
 Heinecke, A; Bungartz, H; Lederer, H. 
 Journal of Physics: Condensed Matter, 26 (21), (2014). 
 The ELPA library: scalable parallel eigenvalue solutions for
 electronic structure
 theory and computational science.
 https://doi.org/10.1088/0953-8984/26/21/213201

 Guidon, M; Hutter, J; VandeVondele, J. 
 JOURNAL OF CHEMICAL THEORY AND COMPUTATION, 5 (11), 3010-3021 (2009). 
 Robust Periodic Hartree-Fock Exchange for Large-Scale Simulations Using
 Gaussian Basis Sets.
 https://doi.org/10.1021/ct900494g

 Guidon, M; Schiffmann, F; Hutter, J; VandeVondele, J. 
 JOURNAL OF CHEMICAL PHYSICS, 128 (21), 214104 (2008). 
 Ab initio molecular dynamics using hybrid density functionals.
 https://doi.org/10.1063/1.2931945

 Kuhne, TD; Krack, M; Mohamed, FR; Parrinello, M. 
 PHYSICAL REVIEW LETTERS, 98 (6), 066401 (2007). 
 Efficient and accurate Car-Parrinello-like approach to
 Born-Oppenheimer molecular dynamics.
 https://doi.org/10.1103/PhysRevLett.98.066401

 Laino, T; Mohamed, F; Laio, A; Parrinello, M. 
 JOURNAL OF CHEMICAL THEORY AND COMPUTATION, 2 (5), 1370-1378 (2006). 
 An efficient linear-scaling electrostatic coupling for treating
 periodic boundary conditions in QM/MM simulations.
 https://doi.org/10.1021/ct6001169

 Laino, T; Mohamed, F; Laio, A; Parrinello, M. 
 JOURNAL OF CHEMICAL THEORY AND COMPUTATION, 1 (6), 1176-1184 (2005). 
 An efficient real space multigrid QM/MM electrostatic coupling.
 https://doi.org/10.1021/ct050123f

 Krack, M. 
 THEORETICAL CHEMISTRY ACCOUNTS, 114 (1-3), 145-152 (2005). 
 Pseudopotentials for H to Kr optimized for gradient-corrected
 exchange-correlation functionals.
 https://doi.org/10.1007/s00214-005-0655-y

 VandeVondele, J; Krack, M; Mohamed, F; Parrinello, M; Chassaing, T;
 Hutter, J. COMPUTER PHYSICS COMMUNICATIONS, 167 (2), 103-128 (2005). 
 QUICKSTEP: Fast and accurate density functional calculations using a
 mixed Gaussian and plane waves approach.
 https://doi.org/10.1016/j.cpc.2004.12.014

 Frigo, M; Johnson, SG. 
 PROCEEDINGS OF THE IEEE, 93 (2), 216-231 (2005). 
 The design and implementation of FFTW3.
 https://doi.org/10.1109/JPROC.2004.840301

 Kolafa, J. 
 JOURNAL OF COMPUTATIONAL CHEMISTRY, 25 (3), 335-342 (2004). 
 Time-reversible always stable predictor-corrector method for molecular dynamics of polarizable molecules.
 https://doi.org/10.1002/jcc.10385

 VandeVondele, J; Hutter, J. 
 JOURNAL OF CHEMICAL PHYSICS, 118 (10), 4365-4369 (2003). 
 An efficient orbital transformation method for electronic structure
 calculations.
 https://doi.org/10.1063/1.1543154

 Hartwigsen, C; Goedecker, S; Hutter, J. 
 PHYSICAL REVIEW B, 58 (7), 3641-3662 (1998). 
 Relativistic separable dual-space Gaussian pseudopotentials from H to Rn.
 https://doi.org/10.1103/PhysRevB.58.3641

 Lippert, G; Hutter, J; Parrinello, M. 
 MOLECULAR PHYSICS, 92 (3), 477-487 (1997). 
 A hybrid Gaussian and plane wave density functional scheme.
 https://doi.org/10.1080/002689797170220

 Perdew, JP; Burke, K; Ernzerhof, M. 
 PHYSICAL REVIEW LETTERS, 77 (18), 3865-3868 (1996). 
 Generalized gradient approximation made simple.
 https://doi.org/10.1103/PhysRevLett.77.3865

 Goedecker, S; Teter, M; Hutter, J. 
 PHYSICAL REVIEW B, 54 (3), 1703-1710 (1996). 
 Separable dual-space Gaussian pseudopotentials.
 https://doi.org/10.1103/PhysRevB.54.1703

 ESSMANN, U; PERERA, L; BERKOWITZ, ML; DARDEN, T; LEE, H; PEDERSEN, LG. 
 JOURNAL OF CHEMICAL PHYSICS, 103 (19), 8577-8593 (1995). 
 A SMOOTH PARTICLE MESH EWALD METHOD.
 https://doi.org/10.1063/1.470117

 BLOCHL, PE. 
 JOURNAL OF CHEMICAL PHYSICS, 103 (17), 7422-7428 (1995). 
 ELECTROSTATIC DECOUPLING OF PERIODIC IMAGES OF PLANE-WAVE-EXPANDED
 DENSITIES AND DERIVED ATOMIC POINT CHARGES.
 https://doi.org/10.1063/1.470314


 -------------------------------------------------------------------------------
 -                                                                             -
 -                                T I M I N G                                  -
 -                                                                             -
 -------------------------------------------------------------------------------
 SUBROUTINE                       CALLS  ASD         SELF TIME        TOTAL TIME
                                MAXIMUM       AVERAGE  MAXIMUM  AVERAGE  MAXIMUM
 CP2K                                 1  1.0    0.614    0.643  755.937  755.944
 qs_mol_dyn_low                       1  2.0    0.018    0.019  691.782  694.008
 qs_forces                            2  3.5    0.001    0.001  483.218  483.223
 rebuild_ks_matrix                   21  8.2    0.000    0.000  457.660  457.665
 qs_ks_build_kohn_sham_matrix        21  9.2    0.004    0.005  457.660  457.665
 hfx_ks_matrix                       21 10.2    0.001    0.001  397.488  397.489
 velocity_verlet                      1  3.0    0.016    0.017  337.519  337.547
 qs_ks_update_qs_env_forces           2  4.5    0.000    0.000  252.948  252.949
 derivatives_four_center              2  8.5    0.015    0.369  238.318  238.318
 derivatives_four_center_main         2  9.5    0.001    0.001  237.284  237.285
 derivatives_four_center_bin        130 10.5  223.854  237.282  223.854  237.282
 qs_energies                          2  4.5    0.000    0.000  230.114  230.119
 scf_env_do_scf                       2  5.5    0.000    0.000  227.000  227.000
 qs_ks_update_qs_env                 21  7.5    0.000    0.000  204.715  204.720
 integrate_four_center               21 11.2    0.102    0.476  159.167  159.167
 integrate_four_center_main          21 12.2    0.007    0.008  149.069  152.381
 integrate_four_center_bin         1344 13.2  149.062  152.374  149.062  152.374
 scf_env_do_scf_inner_loop           19  6.5    0.001    0.002  141.533  141.537
 qmmm_forces                          2  3.5    0.027    0.029  119.643  119.644
 qmmm_forces_with_gaussian            2  4.5    0.033    0.050  117.461  118.436
 qmmm_force_with_gaussian_low         2  5.5    0.000    0.000   96.793   97.646
 init_scf_loop                        2  6.5    0.000    0.000   85.461   85.462
 qmmm_forces_gaussian_low_R           2  6.5    0.000    0.000   82.740   83.473
 qmmm_forces_with_gaussian_LG         2  7.5   82.740   83.473   82.740   83.473
 qmmm_el_coupling                     2  3.5    0.000    0.000   82.774   82.976
 qmmm_elec_with_gaussian              2  4.5    0.012    0.016   82.768   82.970
 qmmm_elec_with_gaussian_low          2  5.5    0.000    0.000   64.656   66.008
 qmmm_env_create                      1  2.0   16.431   17.221   61.027   61.035
 qmmm_elec_gaussian_low_R             2  6.5    0.000    0.000   56.198   57.414
 qmmm_elec_with_gaussian_LG           2  7.5   56.198   57.414   56.198   57.414
 pw_transfer                        442 11.7    0.035    0.044   45.214   47.266
 fft_wrap_pw1pw2                    369 12.9    0.005    0.007   44.409   46.464
 fft_wrap_pw1pw2_200                235 14.1    3.792    3.997   43.412   45.513
 fist_init                            1  3.0    0.000    0.000   38.925   38.925
 fft3d_ps                           369 14.9   22.263   22.831   33.331   35.453
 qs_vxc_create                       21 10.2    0.001    0.001   34.862   34.876
 xc_vxc_pw_create                    21 11.2    0.241    0.273   34.861   34.875
 force_field_control                  1  4.0    0.000    0.000   22.198   22.861
 qs_rho_update_rho                   21  7.5    0.000    0.000   22.846   22.852
 calculate_rho_elec                  21  8.5    0.097    0.108   22.845   22.852
 density_rs2pw                       21  9.5    0.002    0.002   20.288   21.440
 xc_rho_set_and_dset_create          21 12.2    0.202    0.213   16.364   18.331
 pw_restrict_s3                       6  5.5    7.113    7.200   17.831   18.037
 sum_up_and_integrate                21 10.2    0.123    0.129   17.642   17.658
 integrate_v_rspace                  21 11.2    0.001    0.001   17.518   17.545
 rdparm_amber_8                       2  6.5   14.030   14.343   17.293   17.481
 mp_sum_lv                           63  3.1   13.431   17.389   13.431   17.389
 rs_pw_transfer                     180 11.5    0.003    0.004   16.184   17.318
 topology_control                     1  4.0    0.000    0.000   15.697   16.686
 -------------------------------------------------------------------------------

 The number of warnings for this run is : 0
 
 -------------------------------------------------------------------------------
  **** **** ******  **  PROGRAM ENDED AT                 2021-04-19 13:41:59.777
 ***** ** ***  *** **   PROGRAM RAN ON                                   r1i4n24
 **    ****   ******    PROGRAM RAN BY                                    hollyj
 ***** **    ** ** **   PROGRAM PROCESS ID                                 36404
  **** **  *******  **  PROGRAM STOPPED IN /lustre/home/w68/hollyj/CP2K/Cirrus/C
                                           PU/cp2kMD/CBD_PHY-PBE0/1STEPS/1NODES/
                                           36CPN/1THREADS
