 DBCSR| CPU Multiplication driver                                           XSMM
 DBCSR| Multrec recursion limit                                              512
 DBCSR| Multiplication stack size                                           1000
 DBCSR| Maximum elements for images                                    UNLIMITED
 DBCSR| Multiplicative factor virtual images                                   1
 DBCSR| Use multiplication densification                                       T
 DBCSR| Multiplication size stacks                                             3
 DBCSR| Use memory pool for CPU allocation                                     F
 DBCSR| Number of 3D layers                                               SINGLE
 DBCSR| Use MPI memory allocation                                              F
 DBCSR| Use RMA algorithm                                                      F
 DBCSR| Use Communication thread                                               T
 DBCSR| Communication thread load                                             79
 DBCSR| MPI: My node id                                                        0
 DBCSR| MPI: Number of nodes                                                  96
 DBCSR| OMP: Current number of threads                                         3
 DBCSR| OMP: Max number of threads                                             3
 DBCSR| Split modifier for TAS multiplication algorithm                  1.0E+00


  **** **** ******  **  PROGRAM STARTED AT               2021-04-09 12:30:35.829
 ***** ** ***  *** **   PROGRAM STARTED ON                               r1i0n29
 **    ****   ******    PROGRAM STARTED BY                                hollyj
 ***** **    ** ** **   PROGRAM PROCESS ID                                 35703
  **** **  *******  **  PROGRAM STARTED IN /lustre/home/w68/hollyj/CP2K/Cirrus/C
                                           PU/cp2kMD/ClC-253-BLYP/1STEPS/8NODES/
                                           36CPN/3THREADS

 CP2K| version string:                                          CP2K version 8.1
 CP2K| source code revision number:                                  git:0b61f2f
 CP2K| cp2kflags: omp libint fftw3 libxc elpa parallel mpi3 scalapack xsmm spgli
 CP2K|            b mkl
 CP2K| is freely available from                            https://www.cp2k.org/
 CP2K| Program compiled at                           Mon Feb 1 13:14:42 GMT 2021
 CP2K| Program compiled on                                         cirrus-login1
 CP2K| Program compiled for                                           Cirrus-gcc
 CP2K| Data directory path       /lustre/home/w68/hollyj/CP2K/v8.1/cp2k-8.1/data
 CP2K| Input file name                                          ClC-253-cp2k.inp

 GLOBAL| Force Environment number                                              1
 GLOBAL| Basis set file name                                        BASIS_MOLOPT
 GLOBAL| Potential file name                                           POTENTIAL
 GLOBAL| MM Potential file name                                     MM_POTENTIAL
 GLOBAL| Coordinate file name                                            ClC.pdb
 GLOBAL| Method name                                                        CP2K
 GLOBAL| Project name                                               ClC-253-BLYP
 GLOBAL| Preferred FFT library                                             FFTW3
 GLOBAL| Preferred diagonalization lib.                                     ELPA
 GLOBAL| Run type                                                             MD
 GLOBAL| All-to-all communication in single precision                          F
 GLOBAL| FFTs using library dependent lengths                                  F
 GLOBAL| Global print level                                                  LOW
 GLOBAL| MPI I/O enabled                                                       T
 GLOBAL| Total number of message passing processes                            96
 GLOBAL| Number of threads for this process                                    3
 GLOBAL| This output is from process                                           0
 GLOBAL| CPU model name                Intel(R) Xeon(R) CPU E5-2695 v4 @ 2.10GHz
 GLOBAL| CPUID                                                              1002
 GLOBAL| Compiled for CPUID                                                 1001

 *** HINT in environment.F:802 :: The compiler target flags (x86_avx) used ***
 *** to build this binary cannot exploit all extensions of this CPU model  ***
 *** (x86_avx2). Consider compiler target flags as part of FCFLAGS and     ***
 *** CFLAGS (ARCH file).                                                   ***


 MEMORY| system memory details [Kb]
 MEMORY|                        rank 0           min           max       average
 MEMORY| MemTotal            263692180     263692180     263692180     263692180
 MEMORY| MemFree             260361776     260361776     260696080     260500690
 MEMORY| Buffers                     0             0             0             0
 MEMORY| Cached                 488784        335188        488784        376579
 MEMORY| Slab                   781812        701760        787948        730774
 MEMORY| SReclaimable           158736        151684        187064        161869
 MEMORY| MemLikelyFree       261009296     260922664     261195928     261039139



                      ************* ******** ***********   
                     ************* **********************  
                     ****     **** ****      ***********   
                     ******** ****  *******     ****       
                     *******  ****   *******   ****        
                     ****     ****       ****  ****        
                     ****     **** **********  ****        
                      ****     **** ********    ****       
                     FRONTIERS IN SIMULATION TECHNOLOGY    
                                                           
                        C.J. Mundy, S. Balasubramanian,    
                     Ken Bagchi, J. Hutter, Ari Seitsonen  
                      IFW Kuo, T. Laino, J. VandeVondele   
                                 Version 1.0               

                                                           


 EWALD| Summation is done by:                                               SPME
 EWALD| Alpha parameter [       ANGSTROM^-1]                              0.4000
 EWALD| Real Space Cutoff [          ANGSTROM]                            8.4348
 EWALD| G-space max. Miller index                         80        80        80
 EWALD| Spline interpolation order                                             6

 FORCEFIELD| WARNING: A non Critical ForceField parameter is missing! CP2K GOES!
 FORCEFIELD| Non critical parameters are:Urey-Bradley,Torsions,Impropers, Opbends and 1-4
 FORCEFIELD| All missing parameters will not contribute to the potential energy!
 FORCEFIELD| Activate the print key FF_INFO to have a list of missing parameters

 CHARGE_INFO| Total Charge of the Classical System:                     2.369895

 SPLINE_INFO| Generating 85491 splines for NONBONDED14 interactions 
              Due to 413 different atomic kinds
  ...8549  ...17098  ...25647  ...34196  ...42745  ...51294  ...59843  ...68392  ...76941  ...85490
 SPLINE_INFO| Number of unique splines computed:            254
 SPLINE_INFO| Done

 SPLINE_INFO| Generating 85491 splines for NONBONDED interactions 
              Due to 413 different atomic kinds
  ...8549  ...17098  ...25647  ...34196  ...42745  ...51294  ...59843  ...68392  ...76941  ...85490
 SPLINE_INFO| Number of unique splines computed:            254
 SPLINE_INFO| Done

 *******************************************************************************
 *******************************************************************************
 **                                                                           **
 **     #####                         ##              ##                      **
 **    ##   ##            ##          ##              ##                      **
 **   ##     ##                       ##            ######                    **
 **   ##     ##  ##   ##  ##   #####  ##  ##   ####   ##    #####    #####    **
 **   ##     ##  ##   ##  ##  ##      ## ##   ##      ##   ##   ##  ##   ##   **
 **   ##  ## ##  ##   ##  ##  ##      ####     ###    ##   ######   ######    **
 **    ##  ###   ##   ##  ##  ##      ## ##      ##   ##   ##       ##        **
 **     #######   #####   ##   #####  ##  ##  ####    ##    #####   ##        **
 **           ##                                                    ##        **
 **                                                                           **
 **                                                ... make the atoms dance   **
 **                                                                           **
 **            Copyright (C) by CP2K developers group (2000 - 2020)           **
 **                      J. Chem. Phys. 152, 194103 (2020)                    **
 **                                                                           **
 *******************************************************************************


 TOTAL NUMBERS AND MAXIMUM NUMBERS

  Total number of            - Atomic kinds:                                   6
                             - Atoms:                                        253
                             - Shell sets:                                   253
                             - Shells:                                       991
                             - Primitive Cartesian functions:               1770
                             - Cartesian basis functions:                   2309
                             - Spherical basis functions:                   2193

  Maximum angular momentum of- Orbital basis functions:                        2
                             - Local part of the GTH pseudopotential:          2
                             - Non-local part of the GTH pseudopotential:      2


 SCF PARAMETERS         Density guess:                                   RESTART
                        --------------------------------------------------------
                        max_scf:                                             300
                        max_scf_history:                                       0
                        max_diis:                                              4
                        --------------------------------------------------------
                        eps_scf:                                        1.00E-06
                        eps_scf_history:                                0.00E+00
                        eps_diis:                                       1.00E-01
                        eps_eigval:                                     1.00E-05
                        --------------------------------------------------------
                        level_shift [a.u.]:                                 0.00
                        --------------------------------------------------------
                        No outer SCF

 *******************************************************************************
 *******************************************************************************
 **                                                                           **
 **             #######  ##     ## ##     ## ##     ##                        **
 **            ##     ## ###   ### ###   ### ###   ###                        **
 **            ##     ## #### #### #### #### #### ####                        **
 **            ##     ## ## ### ## ## ### ## ## ### ##                        **
 **            ##  ## ## ##     ## ##     ## ##     ##                        **
 **            ##    ##  ##     ## ##     ## ##     ##  T.Laino and F.Mohamed **
 **             ##### ## ##     ## ##     ## ##     ##  2005 - 2015           **
 **                                                                           **
 **                                                     Calculation Started.. **
 *******************************************************************************
 *******************************************************************************

 MD_PAR| Molecular dynamics protocol (MD input parameters)
 MD_PAR| Ensemble type                                                       NVE
 MD_PAR| Number of time steps                                                  1
 MD_PAR| Time step [fs]                                                 1.000000
 MD_PAR| Temperature [K]                                              300.000000
 MD_PAR| Temperature tolerance [K]                                      0.000000
 MD_PAR| Print MD information every                                    1 step(s)
 MD_PAR| File type   Print frequency [steps]                          File names
 MD_PAR| Coordinates          1                           ClC-253-BLYP-pos-1.xyz
 MD_PAR| Velocities           1                           ClC-253-BLYP-vel-1.xyz
 MD_PAR| Energies             1                              ClC-253-BLYP-1.ener
 MD_PAR| Dump                20                           ClC-253-BLYP-1.restart

 ROT| Rotational analysis information
 ROT| Principal axes and moments of inertia [a.u.]
 ROT|                           1                   2                   3
 ROT| Eigenvalues      1.18228221563E+13   1.18772146411E+13   1.55923586977E+13
 ROT|      x             -0.973134378681     -0.230223222672      0.002597839626
 ROT|      y             -0.230225448758      0.973137141292     -0.000589052320
 ROT|      z              0.002392440703      0.001171315857      0.999996452117
 ROT| Number of rotovibrational vectors                                        6

 DOF| Calculation of degrees of freedom
 DOF| Number of atoms                                                     150925
 DOF| Number of intramolecular constraints                                     0
 DOF| Number of intermolecular constraints                                     0
 DOF| Invariants (translations + rotations)                                    3
 DOF| Degrees of freedom                                                  452772

 DOF| Restraints information
 DOF| Number of intramolecular restraints                                      0
 DOF| Number of intermolecular restraints                                      0

 MD_VEL| Velocities initialization
 MD_VEL| Initial temperature [K]                                      300.000000
 MD_VEL| COM velocity            -0.0000000000     0.0000000000     0.0000000000

  Translating the system in order to center the QM fragment in the QM box.

 Number of electrons:                                                        654
 Number of occupied orbitals:                                                327
 Number of molecular orbitals:                                               327

 Number of orbital functions:                                               2193
 Number of independent orbital functions:                                   2193

 Extrapolation method: initial_guess


 SCF WAVEFUNCTION OPTIMIZATION

  ----------------------------------- OT ---------------------------------------
  Minimizer      : DIIS                : direct inversion
                                         in the iterative subspace
                                         using   7 DIIS vectors
                                         safer DIIS on
  Preconditioner : FULL_ALL            : diagonalization, state selective
  Precond_solver : DEFAULT
  stepsize       :    0.15000000                  energy_gap     :    0.08000000
  eps_taylor     :   0.10000E-15                  max_taylor     :             4
  ----------------------------------- OT ---------------------------------------

  Step     Update method      Time    Convergence         Total energy    Change
  ------------------------------------------------------------------------------
  Decoupling Energy:                                               0.0675035110
  Recoupling Energy:                                              -0.0068223751
     1 OT DIIS     0.15E+00    1.7     0.00000111     -1098.7918323422 -1.10E+03
  Decoupling Energy:                                               0.0675004361
  Recoupling Energy:                                              -0.0068222921
     2 OT DIIS     0.15E+00    1.8     0.00000182     -1098.7918324061 -6.39E-08
  Decoupling Energy:                                               0.0675017269
  Recoupling Energy:                                              -0.0068223358
     3 OT DIIS     0.15E+00    1.8     0.00000098     -1098.7918324633 -5.73E-08

  *** SCF run converged in     3 steps ***


  Electronic density on regular grids:       -654.0000008477       -0.0000008477
  Core density on regular grids:              654.9999999994       -0.0000000006
  Total charge density on r-space grids:        0.9999991517
  Total charge density g-space grids:           0.9999991517

  Overlap energy of the core charge distribution:               0.00004213532864
  Self energy of the core charge distribution:              -2459.11679630764229
  Core Hamiltonian energy:                                    751.03829819310909
  Hartree energy:                                            1002.26599084247403
  Exchange-correlation energy:                               -294.03608875667726
  QM/MM Electrostatic energy:                                 -98.94327856994161

  Total energy:                                             -1098.79183246334924
  Decoupling Energy:                                               0.0675016129
  Recoupling Energy:                                              -0.0068223367

 ENERGY| Total FORCE_EVAL ( QMMM ) energy [a.u.]:          -1469.875700984368450

 MD_INI| MD initialization
 MD_INI| Potential energy [hartree]                          -0.146987570098E+04
 MD_INI| Total kinetic energy [hartree]                       0.215076797492E+03
 MD_INI| QM kinetic energy [hartree]                          0.369606607592E+00
 MD_INI| Total temperature [K]                                        300.000000
 MD_INI| QM temperature [K]                                           307.542546
 MD_INI| Cell volume [bohr^3]                                 9.853827160554E+06
 MD_INI| Cell volume [ang^3]                                  1.460186515536E+06
 MD_INI| Cell lengths [bohr]      2.39870119E+02  2.39870119E+02  1.71258698E+02
 MD_INI| Cell lengths [ang]       1.26933800E+02  1.26933800E+02  9.06262000E+01
 MD_INI| Cell angles [deg]        9.00000000E+01  9.00000000E+01  9.00000000E+01

  Translating the system in order to center the QM fragment in the QM box.

 Number of electrons:                                                        654
 Number of occupied orbitals:                                                327
 Number of molecular orbitals:                                               327

 Number of orbital functions:                                               2193
 Number of independent orbital functions:                                   2193

 Extrapolation method: ASPC


 SCF WAVEFUNCTION OPTIMIZATION

  ----------------------------------- OT ---------------------------------------
  Minimizer      : DIIS                : direct inversion
                                         in the iterative subspace
                                         using   7 DIIS vectors
                                         safer DIIS on
  Preconditioner : FULL_ALL            : diagonalization, state selective
  Precond_solver : DEFAULT
  stepsize       :    0.15000000                  energy_gap     :    0.08000000
  eps_taylor     :   0.10000E-15                  max_taylor     :             4
  ----------------------------------- OT ---------------------------------------

  Step     Update method      Time    Convergence         Total energy    Change
  ------------------------------------------------------------------------------
  Decoupling Energy:                                               0.0676658532
  Recoupling Energy:                                              -0.0068237527
     1 OT DIIS     0.15E+00    1.6     0.00038779     -1098.3649169402 -1.10E+03
  Decoupling Energy:                                               0.0674445569
  Recoupling Energy:                                              -0.0068207230
     2 OT DIIS     0.15E+00    1.8     0.00028012     -1098.3740152437 -9.10E-03
  Decoupling Energy:                                               0.0676512652
  Recoupling Energy:                                              -0.0068214650
     3 OT DIIS     0.15E+00    1.8     0.00045365     -1098.3736236496  3.92E-04
  Decoupling Energy:                                               0.0674776465
  Recoupling Energy:                                              -0.0068213532
     4 OT DIIS     0.15E+00    1.8     0.00017745     -1098.3760440198 -2.42E-03
  Decoupling Energy:                                               0.0674299755
  Recoupling Energy:                                              -0.0068207525
     5 OT DIIS     0.15E+00    1.8     0.00005926     -1098.3765439023 -5.00E-04
  Decoupling Energy:                                               0.0674468743
  Recoupling Energy:                                              -0.0068203542
     6 OT DIIS     0.15E+00    1.8     0.00004388     -1098.3765866377 -4.27E-05
  Decoupling Energy:                                               0.0674565707
  Recoupling Energy:                                              -0.0068208136
     7 OT DIIS     0.15E+00    1.8     0.00001587     -1098.3766086122 -2.20E-05
  Decoupling Energy:                                               0.0674431897
  Recoupling Energy:                                              -0.0068207177
     8 OT DIIS     0.15E+00    1.8     0.00000828     -1098.3766147350 -6.12E-06
  Decoupling Energy:                                               0.0674418194
  Recoupling Energy:                                              -0.0068205796
     9 OT DIIS     0.15E+00    1.8     0.00000615     -1098.3766170736 -2.34E-06
  Decoupling Energy:                                               0.0674451774
  Recoupling Energy:                                              -0.0068208128
    10 OT DIIS     0.15E+00    1.8     0.00000531     -1098.3766198760 -2.80E-06
  Decoupling Energy:                                               0.0674342587
  Recoupling Energy:                                              -0.0068206129
    11 OT DIIS     0.15E+00    1.8     0.00000394     -1098.3766225783 -2.70E-06
  Decoupling Energy:                                               0.0674351488
  Recoupling Energy:                                              -0.0068206950
    12 OT DIIS     0.15E+00    1.8     0.00000315     -1098.3766249101 -2.33E-06
  Decoupling Energy:                                               0.0674326703
  Recoupling Energy:                                              -0.0068207139
    13 OT DIIS     0.15E+00    1.8     0.00000297     -1098.3766264533 -1.54E-06
  Decoupling Energy:                                               0.0674322211
  Recoupling Energy:                                              -0.0068206876
    14 OT DIIS     0.15E+00    1.8     0.00000295     -1098.3766272699 -8.17E-07
  Decoupling Energy:                                               0.0674315990
  Recoupling Energy:                                              -0.0068207107
    15 OT DIIS     0.15E+00    1.8     0.00000271     -1098.3766281203 -8.50E-07
  Decoupling Energy:                                               0.0674308683
  Recoupling Energy:                                              -0.0068207162
    16 OT DIIS     0.15E+00    1.8     0.00000247     -1098.3766288345 -7.14E-07
  Decoupling Energy:                                               0.0674315678
  Recoupling Energy:                                              -0.0068207194
    17 OT DIIS     0.15E+00    1.8     0.00000220     -1098.3766294315 -5.97E-07
  Decoupling Energy:                                               0.0674323118
  Recoupling Energy:                                              -0.0068207585
    18 OT DIIS     0.15E+00    1.8     0.00000194     -1098.3766303409 -9.09E-07
  Decoupling Energy:                                               0.0674295111
  Recoupling Energy:                                              -0.0068207023
    19 OT DIIS     0.15E+00    1.8     0.00000176     -1098.3766309096 -5.69E-07
  Decoupling Energy:                                               0.0674302148
  Recoupling Energy:                                              -0.0068207360
    20 OT DIIS     0.15E+00    1.8     0.00000156     -1098.3766315910 -6.81E-07
  Decoupling Energy:                                               0.0674298223
  Recoupling Energy:                                              -0.0068207251
    21 OT DIIS     0.15E+00    1.8     0.00000147     -1098.3766321295 -5.38E-07
  Decoupling Energy:                                               0.0674290629
  Recoupling Energy:                                              -0.0068207126
    22 OT DIIS     0.15E+00    1.8     0.00000147     -1098.3766325343 -4.05E-07
  Decoupling Energy:                                               0.0674280755
  Recoupling Energy:                                              -0.0068207015
    23 OT DIIS     0.15E+00    1.8     0.00000146     -1098.3766329196 -3.85E-07
  Decoupling Energy:                                               0.0674276902
  Recoupling Energy:                                              -0.0068206929
    24 OT DIIS     0.15E+00    1.8     0.00000141     -1098.3766332141 -2.94E-07
  Decoupling Energy:                                               0.0674275611
  Recoupling Energy:                                              -0.0068206844
    25 OT DIIS     0.15E+00    1.8     0.00000132     -1098.3766335509 -3.37E-07
  Decoupling Energy:                                               0.0674271096
  Recoupling Energy:                                              -0.0068206806
    26 OT DIIS     0.15E+00    1.8     0.00000121     -1098.3766339170 -3.66E-07
  Decoupling Energy:                                               0.0674256583
  Recoupling Energy:                                              -0.0068206477
    27 OT DIIS     0.15E+00    1.8     0.00000117     -1098.3766341646 -2.48E-07
  Decoupling Energy:                                               0.0674255562
  Recoupling Energy:                                              -0.0068206517
    28 OT DIIS     0.15E+00    1.8     0.00000110     -1098.3766344853 -3.21E-07
  Decoupling Energy:                                               0.0674253778
  Recoupling Energy:                                              -0.0068206417
    29 OT DIIS     0.15E+00    1.8     0.00000107     -1098.3766347711 -2.86E-07
  Decoupling Energy:                                               0.0674249608
  Recoupling Energy:                                              -0.0068206323
    30 OT DIIS     0.15E+00    1.8     0.00000107     -1098.3766350575 -2.86E-07
  Decoupling Energy:                                               0.0674245015
  Recoupling Energy:                                              -0.0068206265
    31 OT DIIS     0.15E+00    1.8     0.00000107     -1098.3766353403 -2.83E-07
  Decoupling Energy:                                               0.0674245040
  Recoupling Energy:                                              -0.0068206233
    32 OT DIIS     0.15E+00    1.8     0.00000106     -1098.3766355441 -2.04E-07
  Decoupling Energy:                                               0.0674247391
  Recoupling Energy:                                              -0.0068206246
    33 OT DIIS     0.15E+00    1.8     0.00000103     -1098.3766358228 -2.79E-07
  Decoupling Energy:                                               0.0674248161
  Recoupling Energy:                                              -0.0068206269
    34 OT DIIS     0.15E+00    1.8     0.00000099     -1098.3766361323 -3.09E-07

  *** SCF run converged in    34 steps ***


  Electronic density on regular grids:       -654.0000005662       -0.0000005662
  Core density on regular grids:              654.9999999988       -0.0000000012
  Total charge density on r-space grids:        0.9999994326
  Total charge density g-space grids:           0.9999994326

  Overlap energy of the core charge distribution:               0.00004332465283
  Self energy of the core charge distribution:              -2459.11679630764229
  Core Hamiltonian energy:                                    750.78608054320125
  Hartree energy:                                            1002.45036695626152
  Exchange-correlation energy:                               -293.96930551314028
  QM/MM Electrostatic energy:                                 -98.52702513558819

  Total energy:                                             -1098.37663613225527
  Decoupling Energy:                                               0.0674242569
  Recoupling Energy:                                              -0.0068206125

 ENERGY| Total FORCE_EVAL ( QMMM ) energy [a.u.]:          -1447.997666804218852

 MD| ***************************************************************************
 MD| Step number                                                               1
 MD| Time [fs]                                                          1.000000
 MD| Conserved quantity [hartree]                            -0.124929046150E+04
 MD| ---------------------------------------------------------------------------
 MD|                                          Instantaneous             Averages
 MD| CPU time per MD step [s]                    208.315285           208.315285
 MD| Energy drift per atom [K]           0.115251040667E+02   0.000000000000E+00
 MD| Potential energy [hartree]         -0.144799766680E+04  -0.144799766680E+04
 MD| Total kinetic energy [hartree]      0.198707205306E+03   0.198707205306E+03
 MD| QM kinetic energy [hartree]         0.373153043355E+00   0.373153043355E+00
 MD| Total temperature [K]                       277.166865           277.166865
 MD| QM temperature [K]                          310.493467           310.493467
 MD| ***************************************************************************

 -------------------------------------------------------------------------------
 -                                                                             -
 -                                DBCSR STATISTICS                             -
 -                                                                             -
 -------------------------------------------------------------------------------
 COUNTER                                    TOTAL       BLAS       SMM       ACC
 flops     5 x     7 x     7               134260       0.0%    100.0%      0.0%
 flops    13 x     7 x     7               295568       0.0%    100.0%      0.0%
 flops    39 x     7 x     7               775866       0.0%    100.0%      0.0%
 flops    54 x     7 x     7               979020       0.0%    100.0%      0.0%
 flops    59 x     7 x     7              1069670       0.0%    100.0%      0.0%
 flops    87 x     7 x     7              1577310       0.0%    100.0%      0.0%
 flops    90 x     7 x     7              1631700       0.0%    100.0%      0.0%
 flops   103 x     7 x     7              1867390       0.0%    100.0%      0.0%
 flops   105 x     7 x     7              1903650       0.0%    100.0%      0.0%
 flops    67 x     7 x     7              2429420       0.0%    100.0%      0.0%
 flops    82 x     7 x     7              4459980       0.0%    100.0%      0.0%
 flops   100 x     7 x     7              5439000       0.0%    100.0%      0.0%
 flops    32 x     7 x     7              5729472       0.0%    100.0%      0.0%
 flops    95 x     7 x     7              8611750       0.0%    100.0%      0.0%
 flops   108 x     7 x     7              9790200       0.0%    100.0%      0.0%
 flops    54 x     7 x    87             15390648       0.0%    100.0%      0.0%
 flops    59 x     7 x    87             16815708       0.0%    100.0%      0.0%
 flops    39 x     7 x    87             21375900       0.0%    100.0%      0.0%
 flops    87 x     7 x    87             24796044       0.0%    100.0%      0.0%
 flops    90 x     7 x    87             25651080       0.0%    100.0%      0.0%
 flops     5 x    32 x    32             28057600       0.0%    100.0%      0.0%
 flops   103 x     7 x    87             29356236       0.0%    100.0%      0.0%
 flops   105 x     7 x    87             29926260       0.0%    100.0%      0.0%
 flops    39 x     7 x    32             35468160       0.0%    100.0%      0.0%
 flops    39 x    32 x     7             35468160       0.0%    100.0%      0.0%
 flops    67 x     7 x    87             38191608       0.0%    100.0%      0.0%
 flops    54 x     7 x    32             44755200       0.0%    100.0%      0.0%
 flops    54 x    32 x     7             44755200       0.0%    100.0%      0.0%
 flops    54 x     7 x    95             44815680       0.0%    100.0%      0.0%
 flops    59 x     7 x    32             48899200       0.0%    100.0%      0.0%
 flops    59 x    32 x     7             48899200       0.0%    100.0%      0.0%
 flops    59 x     7 x    95             48965280       0.0%    100.0%      0.0%
 flops    54 x     7 x    90             58378320       0.0%    100.0%      0.0%
 flops    13 x    32 x    32             61767680       0.0%    100.0%      0.0%
 flops    39 x     7 x    95             62244000       0.0%    100.0%      0.0%
 flops    59 x     7 x    90             63783720       0.0%    100.0%      0.0%
 flops    82 x     7 x    87             70112952       0.0%    100.0%      0.0%
 flops    87 x    32 x     7             72105600       0.0%    100.0%      0.0%
 flops    87 x     7 x    32             72105600       0.0%    100.0%      0.0%
 flops    87 x     7 x    95             72203040       0.0%    100.0%      0.0%
 flops    90 x     7 x    32             74592000       0.0%    100.0%      0.0%
 flops    90 x    32 x     7             74592000       0.0%    100.0%      0.0%
 flops    90 x     7 x    95             74692800       0.0%    100.0%      0.0%
 flops    39 x     7 x    90             81081000       0.0%    100.0%      0.0%
 flops   103 x     7 x    32             85366400       0.0%    100.0%      0.0%
 flops   103 x    32 x     7             85366400       0.0%    100.0%      0.0%
 flops   103 x     7 x    95             85481760       0.0%    100.0%      0.0%
 flops   100 x     7 x    87             85503600       0.0%    100.0%      0.0%
 flops   105 x     7 x    32             87024000       0.0%    100.0%      0.0%
 flops   105 x    32 x     7             87024000       0.0%    100.0%      0.0%
 flops   105 x     7 x    95             87141600       0.0%    100.0%      0.0%
 flops    87 x     7 x    90             94053960       0.0%    100.0%      0.0%
 flops    90 x     7 x    90             97297200       0.0%    100.0%      0.0%
 flops    67 x     7 x    32            111059200       0.0%    100.0%      0.0%
 flops    67 x    32 x     7            111059200       0.0%    100.0%      0.0%
 flops    67 x     7 x    95            111209280       0.0%    100.0%      0.0%
 flops   103 x     7 x    90            111351240       0.0%    100.0%      0.0%
 flops   105 x     7 x    90            113513400       0.0%    100.0%      0.0%
 flops    95 x     7 x    87            135380700       0.0%    100.0%      0.0%
 flops     5 x     5 x     7            135650550       0.0%    100.0%      0.0%
 flops    67 x     7 x    90            144864720       0.0%    100.0%      0.0%
 flops   108 x     7 x    87            153906480       0.0%    100.0%      0.0%
 flops    32 x     7 x    87            157852800       0.0%    100.0%      0.0%
 flops    82 x     7 x    32            203884800       0.0%    100.0%      0.0%
 flops    82 x    32 x     7            203884800       0.0%    100.0%      0.0%
 flops    82 x     7 x    95            204160320       0.0%    100.0%      0.0%
 flops   100 x     7 x    32            248640000       0.0%    100.0%      0.0%
 flops   100 x    32 x     7            248640000       0.0%    100.0%      0.0%
 flops   100 x     7 x    95            248976000       0.0%    100.0%      0.0%
 flops    32 x    32 x     7            261918720       0.0%    100.0%      0.0%
 flops    32 x     7 x    32            261918720       0.0%    100.0%      0.0%
 flops    82 x     7 x    90            265945680       0.0%    100.0%      0.0%
 flops    13 x     5 x     7            296092160       0.0%    100.0%      0.0%
 flops     5 x    13 x     7            296241400       0.0%    100.0%      0.0%
 flops   100 x     7 x    90            324324000       0.0%    100.0%      0.0%
 flops    95 x    32 x     7            393680000       0.0%    100.0%      0.0%
 flops    95 x     7 x    32            393680000       0.0%    100.0%      0.0%
 flops    95 x     7 x    95            394212000       0.0%    100.0%      0.0%
 flops   108 x     7 x    32            447552000       0.0%    100.0%      0.0%
 flops   108 x    32 x     7            447552000       0.0%    100.0%      0.0%
 flops   108 x     7 x    95            448156800       0.0%    100.0%      0.0%
 flops    32 x     7 x    95            459648000       0.0%    100.0%      0.0%
 flops    95 x     7 x    90            513513000       0.0%    100.0%      0.0%
 flops     5 x     7 x     5            578085200       0.0%    100.0%      0.0%
 flops   108 x     7 x    90            583783200       0.0%    100.0%      0.0%
 flops    32 x     7 x    90            598752000       0.0%    100.0%      0.0%
 flops    13 x    13 x     7            648485110       0.0%    100.0%      0.0%
 flops    54 x    32 x    87            703572480       0.0%    100.0%      0.0%
 flops    59 x    32 x    87            768718080       0.0%    100.0%      0.0%
 flops    39 x    32 x    87            977184000       0.0%    100.0%      0.0%
 flops    87 x    32 x    87           1133533440       0.0%    100.0%      0.0%
 flops    90 x    32 x    87           1172620800       0.0%    100.0%      0.0%
 flops    13 x     7 x     5           1271350080       0.0%    100.0%      0.0%
 flops     5 x     7 x    13           1271350080       0.0%    100.0%      0.0%
 flops   103 x    32 x    87           1341999360       0.0%    100.0%      0.0%
 flops   105 x    32 x    87           1368057600       0.0%    100.0%      0.0%
 flops    39 x    32 x    32           1621401600       0.0%    100.0%      0.0%
 flops    67 x    32 x    87           1745902080       0.0%    100.0%      0.0%
 flops    54 x    32 x    32           2045952000       0.0%    100.0%      0.0%
 flops    54 x    32 x    95           2048716800       0.0%    100.0%      0.0%
 flops    59 x    32 x    32           2235392000       0.0%    100.0%      0.0%
 flops    59 x    32 x    95           2238412800       0.0%    100.0%      0.0%
 flops    54 x    32 x    90           2668723200       0.0%    100.0%      0.0%
 flops    13 x     7 x    13           2759588832       0.0%    100.0%      0.0%
 flops    39 x    32 x    95           2845440000       0.0%    100.0%      0.0%
 flops    59 x    32 x    90           2915827200       0.0%    100.0%      0.0%
 flops    82 x    32 x    87           3205163520       0.0%    100.0%      0.0%
 flops    87 x    32 x    32           3296256000       0.0%    100.0%      0.0%
 flops    87 x    32 x    95           3300710400       0.0%    100.0%      0.0%
 flops    90 x    32 x    32           3409920000       0.0%    100.0%      0.0%
 flops    90 x    32 x    95           3414528000       0.0%    100.0%      0.0%
 flops    39 x    32 x    90           3706560000       0.0%    100.0%      0.0%
 flops   103 x    32 x    32           3902464000       0.0%    100.0%      0.0%
 flops   103 x    32 x    95           3907737600       0.0%    100.0%      0.0%
 flops   100 x    32 x    87           3908736000       0.0%    100.0%      0.0%
 flops   105 x    32 x    32           3978240000       0.0%    100.0%      0.0%
 flops   105 x    32 x    95           3983616000       0.0%    100.0%      0.0%
 flops    87 x    32 x    90           4299609600       0.0%    100.0%      0.0%
 flops    90 x    32 x    90           4447872000       0.0%    100.0%      0.0%
 flops    67 x    32 x    32           5076992000       0.0%    100.0%      0.0%
 flops    67 x    32 x    95           5083852800       0.0%    100.0%      0.0%
 flops   103 x    32 x    90           5090342400       0.0%    100.0%      0.0%
 flops   105 x    32 x    90           5189184000       0.0%    100.0%      0.0%
 flops    95 x    32 x    87           6188832000       0.0%    100.0%      0.0%
 flops     5 x     5 x    32           6201168000       0.0%    100.0%      0.0%
 flops    67 x    32 x    90           6622387200       0.0%    100.0%      0.0%
 flops   108 x    32 x    87           7035724800       0.0%    100.0%      0.0%
 flops    32 x    32 x    87           7216128000       0.0%    100.0%      0.0%
 flops    82 x    32 x    32           9320448000       0.0%    100.0%      0.0%
 flops    82 x    32 x    95           9333043200       0.0%    100.0%      0.0%
 flops   100 x    32 x    32          11366400000       0.0%    100.0%      0.0%
 flops   100 x    32 x    95          11381760000       0.0%    100.0%      0.0%
 flops    32 x    32 x    32          11973427200       0.0%    100.0%      0.0%
 flops    82 x    32 x    90          12157516800       0.0%    100.0%      0.0%
 flops    13 x     5 x    32          13535641600       0.0%    100.0%      0.0%
 flops     5 x    13 x    32          13542464000       0.0%    100.0%      0.0%
 flops   100 x    32 x    90          14826240000       0.0%    100.0%      0.0%
 flops    95 x    32 x    32          17996800000       0.0%    100.0%      0.0%
 flops    95 x    32 x    95          18021120000       0.0%    100.0%      0.0%
 flops   108 x    32 x    32          20459520000       0.0%    100.0%      0.0%
 flops   108 x    32 x    95          20487168000       0.0%    100.0%      0.0%
 flops    32 x    32 x    95          21012480000       0.0%    100.0%      0.0%
 flops    95 x    32 x    90          23474880000       0.0%    100.0%      0.0%
 flops     5 x    32 x     5          26426752000       0.0%    100.0%      0.0%
 flops   108 x    32 x    90          26687232000       0.0%    100.0%      0.0%
 flops    32 x    32 x    90          27371520000       0.0%    100.0%      0.0%
 flops    13 x    13 x    32          29645033600       0.0%    100.0%      0.0%
 flops    13 x    32 x     5          58118860800       0.0%    100.0%      0.0%
 flops     5 x    32 x    13          58118860800       0.0%    100.0%      0.0%
 flops    13 x    32 x    13         126152632320       0.0%    100.0%      0.0%
 flops inhomo. stacks                 31880930400     100.0%      0.0%      0.0%
 flops total                       761.408270E+09       4.2%     95.8%      0.0%
 flops max/rank                      9.937538E+09       4.5%     95.5%      0.0%
 matmuls inhomo. stacks                     74184     100.0%      0.0%      0.0%
 matmuls total                           77851158       0.1%     99.9%      0.0%
 number of processed stacks               4423958       1.7%     98.3%      0.0%
 average stack size                                     1.0      17.9       0.0
 marketing flops                   824.253678E+09
 -------------------------------------------------------------------------------
 # multiplications                            749
 max memory usage/rank             823.377920E+06
 # max total images/rank                        3
 # max 3D layers                                1
 # MPI messages exchanged                 3091872
 MPI messages size (bytes):
  total size                       112.397623E+09
  min size                           0.000000E+00
  max size                         225.600000E+03
  average size                      36.352613E+03
 MPI breakdown and total messages size (bytes):
             size <=      128             1056630                        0
       128 < size <=     8192              511392               3551684472
      8192 < size <=    32768              858978              19476817880
     32768 < size <=   131072              314280              19396646400
    131072 < size <=  4194304              350592              69973037200
   4194304 < size <= 16777216                   0                        0
  16777216 < size                               0                        0
 -------------------------------------------------------------------------------

 *** WARNING in dbcsr_mm.F:294 :: Using a non-square number of MPI ranks ***
 *** might lead to poor performance. Used ranks: 96 Suggested: 100 196   ***

 -------------------------------------------------------------------------------
 -                                                                             -
 -                      DBCSR MESSAGE PASSING PERFORMANCE                      -
 -                                                                             -
 -------------------------------------------------------------------------------
 ROUTINE             CALLS      AVE VOLUME [Bytes]
 MP_Bcast              151                     12.
 MP_Allreduce         4335                      9.
 MP_Alltoall          2525                  21739.
 MP_ISend            68116                  19605.
 MP_IRecv            69002                  18993.
 -------------------------------------------------------------------------------

 -------------------------------------------------------------------------------
 -                                                                             -
 -                                GRID STATISTICS                              -
 -                                                                             -
 -------------------------------------------------------------------------------
 LP    KERNEL             BACKEND                              COUNT     PERCENT
 3     collocate ortho    REF                               12386002      24.26%
 3     integrate ortho    REF                               12164336      23.83%
 2     collocate ortho    REF                                8063794      15.80%
 2     integrate ortho    REF                                7650251      14.99%
 4     integrate ortho    REF                                5403035      10.58%
 4     collocate ortho    REF                                5025548       9.84%
 5     integrate ortho    REF                                 257722       0.50%
 0     collocate general  REF                                  48576       0.10%
 1     integrate general  REF                                  48576       0.10%
 -------------------------------------------------------------------------------

 MEMORY| Estimated peak process memory [MiB]                                 864

 -------------------------------------------------------------------------------
 -                                                                             -
 -                         MESSAGE PASSING PERFORMANCE                         -
 -                                                                             -
 -------------------------------------------------------------------------------

 ROUTINE             CALLS      AVE VOLUME [Bytes]
 MP_Group                8
 MP_Bcast             8848               10230443.
 MP_Allreduce         2091                  19902.
 MP_Sync                 7
 MP_Alltoall           807                9195069.
 MP_SendRecv           576                 103672.
 MP_ISendRecv        14820                  25920.
 MP_Wait             20744
 MP_ISend             5190                 303534.
 MP_IRecv             5172                 304327.
 MP_Recv                33                 491232.
 -------------------------------------------------------------------------------


 -------------------------------------------------------------------------------
 -                                                                             -
 -                           R E F E R E N C E S                               -
 -                                                                             -
 -------------------------------------------------------------------------------
 
 CP2K version 8.1, the CP2K developers group (2020).
 CP2K is freely available from https://www.cp2k.org/ .

 Kuehne,Thomas D.; Iannuzzi,Marcella; Del Ben,Mauro;
 Rybkin,Vladimir V.; Seewald,Patrick; Stein,Frederick; Laino,Teodoro;
 Khaliullin,Rustam Z.; Schuett,Ole; Schiffmann,Florian; Golze,Dorothea;
 Wilhelm,Jan; Chulkov,Sergey; Bani-Hashemian,Mohammad Hossein;
 Weber,Valery; Borstnik,Urban; Taillefumier,Mathieu;
 Jakobovits,Alice Shoshana; Lazzaro,Alfio; Pabst,Hans; Mueller,Tiziano;
 Schade,Robert; Guidon,Manuel; Andermatt,Samuel; Holmberg,Nico;
 Schenter,Gregory K.; Hehn,Anna; Bussy,Augustin; Belleflamme,Fabian;
 Tabacchi,Gloria; Gloess,Andreas; Lass,Michael; Bethune,Iain;
 Mundy,Christopher J.; Plessl,Christian; Watkins,Matt;
 VandeVondele,Joost; Krack,Matthias; Hutter,Juerg. 
 The Journal of Chemical Physics, 152 (19), (2020). 
 CP2K: An electronic structure and molecular dynamics software package -
 Quickstep: Efficient and accurate electronic structure calculations.
 https://doi.org/10.1063/5.0007045

 Schuett, Ole; Messmer, Peter; Hutter, Juerg; VandeVondele, Joost. 
 Electronic Structure Calculations on Graphics Processing Units, John
 Wiley & Sons, Ltd, 173-190 (2016). 
 GPU-Accelerated Sparse Matrix-Matrix Multiplication for
 Linear Scaling Density Functional Theory.
 https://doi.org/10.1002/9781118670712.ch8

 Borstnik, U; VandeVondele, J; Weber, V; Hutter, J. 
 PARALLEL COMPUTING, 40 (5-6), 47-58 (2014). 
 Sparse matrix multiplication: The distributed block-compressed sparse
 row library.
 https://doi.org/10.1016/j.parco.2014.03.012

 Hutter, J; Iannuzzi, M; Schiffmann, F; VandeVondele, J. 
 WIREs Comput Mol Sci., 4 (1), 15-25 (2014). 
 CP2K: atomistic simulations of condensed matter systems.
 https://doi.org/10.1002/wcms.1159

 Marek, A; Blum, V; Johanni, R; Havu, V; Lang, B; Auckenthaler, T;
 Heinecke, A; Bungartz, H; Lederer, H. 
 Journal of Physics: Condensed Matter, 26 (21), (2014). 
 The ELPA library: scalable parallel eigenvalue solutions for
 electronic structure
 theory and computational science.
 https://doi.org/10.1088/0953-8984/26/21/213201

 VandeVondele, J; Hutter, J. 
 JOURNAL OF CHEMICAL PHYSICS, 127 (11), 114105 (2007). 
 Gaussian basis sets for accurate calculations on molecular systems in
 gas and condensed phases.
 https://doi.org/10.1063/1.2770708

 Kuhne, TD; Krack, M; Mohamed, FR; Parrinello, M. 
 PHYSICAL REVIEW LETTERS, 98 (6), 066401 (2007). 
 Efficient and accurate Car-Parrinello-like approach to
 Born-Oppenheimer molecular dynamics.
 https://doi.org/10.1103/PhysRevLett.98.066401

 Laino, T; Mohamed, F; Laio, A; Parrinello, M. 
 JOURNAL OF CHEMICAL THEORY AND COMPUTATION, 2 (5), 1370-1378 (2006). 
 An efficient linear-scaling electrostatic coupling for treating
 periodic boundary conditions in QM/MM simulations.
 https://doi.org/10.1021/ct6001169

 Laino, T; Mohamed, F; Laio, A; Parrinello, M. 
 JOURNAL OF CHEMICAL THEORY AND COMPUTATION, 1 (6), 1176-1184 (2005). 
 An efficient real space multigrid QM/MM electrostatic coupling.
 https://doi.org/10.1021/ct050123f

 Krack, M. 
 THEORETICAL CHEMISTRY ACCOUNTS, 114 (1-3), 145-152 (2005). 
 Pseudopotentials for H to Kr optimized for gradient-corrected
 exchange-correlation functionals.
 https://doi.org/10.1007/s00214-005-0655-y

 VandeVondele, J; Krack, M; Mohamed, F; Parrinello, M; Chassaing, T;
 Hutter, J. COMPUTER PHYSICS COMMUNICATIONS, 167 (2), 103-128 (2005). 
 QUICKSTEP: Fast and accurate density functional calculations using a
 mixed Gaussian and plane waves approach.
 https://doi.org/10.1016/j.cpc.2004.12.014

 Frigo, M; Johnson, SG. 
 PROCEEDINGS OF THE IEEE, 93 (2), 216-231 (2005). 
 The design and implementation of FFTW3.
 https://doi.org/10.1109/JPROC.2004.840301

 Kolafa, J. 
 JOURNAL OF COMPUTATIONAL CHEMISTRY, 25 (3), 335-342 (2004). 
 Time-reversible always stable predictor-corrector method for molecular dynamics of polarizable molecules.
 https://doi.org/10.1002/jcc.10385

 VandeVondele, J; Hutter, J. 
 JOURNAL OF CHEMICAL PHYSICS, 118 (10), 4365-4369 (2003). 
 An efficient orbital transformation method for electronic structure
 calculations.
 https://doi.org/10.1063/1.1543154

 Hartwigsen, C; Goedecker, S; Hutter, J. 
 PHYSICAL REVIEW B, 58 (7), 3641-3662 (1998). 
 Relativistic separable dual-space Gaussian pseudopotentials from H to Rn.
 https://doi.org/10.1103/PhysRevB.58.3641

 Lippert, G; Hutter, J; Parrinello, M. 
 MOLECULAR PHYSICS, 92 (3), 477-487 (1997). 
 A hybrid Gaussian and plane wave density functional scheme.
 https://doi.org/10.1080/002689797170220

 Goedecker, S; Teter, M; Hutter, J. 
 PHYSICAL REVIEW B, 54 (3), 1703-1710 (1996). 
 Separable dual-space Gaussian pseudopotentials.
 https://doi.org/10.1103/PhysRevB.54.1703

 ESSMANN, U; PERERA, L; BERKOWITZ, ML; DARDEN, T; LEE, H; PEDERSEN, LG. 
 JOURNAL OF CHEMICAL PHYSICS, 103 (19), 8577-8593 (1995). 
 A SMOOTH PARTICLE MESH EWALD METHOD.
 https://doi.org/10.1063/1.470117

 BLOCHL, PE. 
 JOURNAL OF CHEMICAL PHYSICS, 103 (17), 7422-7428 (1995). 
 ELECTROSTATIC DECOUPLING OF PERIODIC IMAGES OF PLANE-WAVE-EXPANDED
 DENSITIES AND DERIVED ATOMIC POINT CHARGES.
 https://doi.org/10.1063/1.470314

 BECKE, AD. PHYSICAL REVIEW A, 38 (6), 3098-3100 (1988). 
 DENSITY-FUNCTIONAL EXCHANGE-ENERGY APPROXIMATION WITH CORRECT
 ASYMPTOTIC-BEHAVIOR.
 https://doi.org/10.1103/PhysRevA.38.3098

 LEE, CT; YANG, WT; PARR, RG. 
 PHYSICAL REVIEW B, 37 (2), 785-789 (1988). 
 DEVELOPMENT OF THE COLLE-SALVETTI CORRELATION-ENERGY FORMULA INTO A
 FUNCTIONAL OF THE ELECTRON-DENSITY.
 https://doi.org/10.1103/PhysRevB.37.785


 -------------------------------------------------------------------------------
 -                                                                             -
 -                                T I M I N G                                  -
 -                                                                             -
 -------------------------------------------------------------------------------
 SUBROUTINE                       CALLS  ASD         SELF TIME        TOTAL TIME
                                MAXIMUM       AVERAGE  MAXIMUM  AVERAGE  MAXIMUM
 CP2K                                 1  1.0    0.217    0.225  287.568  287.574
 qs_mol_dyn_low                       1  2.0    0.008    0.009  209.416  211.279
 velocity_verlet                      1  3.0    0.005    0.005  131.026  131.032
 qmmm_env_create                      1  2.0   11.523   12.061   76.008   76.016
 qs_forces                            2  3.5    0.001    0.001   75.423   75.426
 qs_energies                          2  4.5    0.000    0.000   72.438   72.441
 qmmm_el_coupling                     2  3.5    0.000    0.000   68.735   68.753
 qmmm_elec_with_gaussian              2  4.5    0.001    0.001   68.734   68.753
 scf_env_do_scf                       2  5.5    0.000    0.000   68.350   68.350
 qmmm_elec_with_gaussian_low          2  5.5    0.000    0.000   25.319   68.127
 scf_env_do_scf_inner_loop           37  6.9    0.001    0.003   65.177   65.201
 qmmm_forces                          2  3.5    0.008    0.008   61.810   61.811
 qmmm_forces_with_gaussian            2  4.5    0.001    0.002   20.978   61.742
 qmmm_force_with_gaussian_low         2  5.5    0.000    0.000   20.383   61.147
 fist_init                            1  3.0    0.000    0.000   60.413   60.414
 mp_sync                              7  7.1   42.805   58.011   42.805   58.011
 mp_sum_dm                          258  4.8   41.404   54.130   41.404   54.130
 qmmm_forces_gaussian_low_R           2  6.5    0.000    0.000   12.587   41.531
 qmmm_forces_with_gaussian_LG         2  7.5   12.587   41.531   12.587   41.531
 qmmm_elec_gaussian_low_G             2  6.5   16.664   40.244   16.664   40.244
 force_field_control                  1  4.0    0.000    0.000   37.902   38.233
 rebuild_ks_matrix                   39  8.7    0.000    0.000   35.470   35.482
 qs_ks_build_kohn_sham_matrix        39  9.7    0.004    0.005   35.470   35.482
 rdparm_amber_8                       2  6.5   27.393   29.637   33.921   34.043
 qs_rho_update_rho                   39  7.9    0.000    0.000   33.381   33.386
 calculate_rho_elec                  39  8.9    0.046    0.046   33.380   33.386
 qs_ks_update_qs_env                 39  7.9    0.000    0.000   33.009   33.021
 grid_collocate_task_list            39  9.9    9.639   29.815    9.639   29.815
 density_rs2pw                       39  9.9    0.002    0.002   23.504   28.307
 rs_pw_transfer                     324 12.1    0.004    0.006   23.431   28.264
 qmmm_elec_gaussian_low_R             2  6.5    0.000    0.000    8.655   27.883
 qmmm_elec_with_gaussian_LG           2  7.5    8.655   27.883    8.655   27.883
 mp_waitany                        5172 14.0   21.804   26.687   21.804   26.687
 rs_pw_transfer_RS2PW_150            41 11.8    0.188    0.238   18.029   25.023
 sum_up_and_integrate                39 10.7    0.021    0.023   24.585   24.606
 integrate_v_rspace                  39 11.7    0.001    0.001   24.564   24.586
 topology_control                     1  4.0    0.000    0.000   22.233   23.039
 grid_integrate_task_list            39 12.7    6.325   21.564    6.325   21.564
 force_field_pack                     1  5.0    0.016    0.018   19.982   20.270
 qmmm_forces_gaussian_low_G           2  6.5    7.796   19.616    7.796   19.616
 mp_alltoall_d11v                   557 13.7   15.549   19.211   15.549   19.211
 rs_gather_matrices                  39 12.7    0.009    0.011   15.374   19.035
 read_force_field_amber               1  5.0    0.006    0.006   17.837   18.043
 connectivity_control                 2  4.0    0.000    0.000   17.067   17.430
 read_connectivity_amber              1  6.0    0.000    0.000   16.090   16.105
 pw_transfer                        802 12.4    0.045    0.055   12.435   12.736
 fft_wrap_pw1pw2                    675 13.4    0.007    0.008   12.299   12.602
 fft_wrap_pw1pw2_150                433 14.6    0.493    0.524   11.783   12.072
 force_field_pack_ub                  1  6.0   11.605   11.891   11.605   11.891
 fft3d_ps                           675 15.4    3.033    3.337   11.046   11.339
 rs_pw_transfer_RS2PW_40             39 11.9    0.087    0.101    3.195   10.911
 qs_vxc_create                       39 10.7    0.000    0.001    7.997    7.998
 xc_vxc_pw_create                    39 11.7    0.096    0.121    7.996    7.997
 mp_alltoall_z22v                   675 17.4    7.468    7.722    7.468    7.722
 parser_read_line               1180343  7.6    0.221    0.261    4.647    5.996
 parser_read_line_low              1192  8.6    0.198    1.346    4.426    5.781
 -------------------------------------------------------------------------------

 The number of warnings for this run is : 1
 
 -------------------------------------------------------------------------------
  **** **** ******  **  PROGRAM ENDED AT                 2021-04-09 12:35:24.019
 ***** ** ***  *** **   PROGRAM RAN ON                                   r1i0n29
 **    ****   ******    PROGRAM RAN BY                                    hollyj
 ***** **    ** ** **   PROGRAM PROCESS ID                                 35703
  **** **  *******  **  PROGRAM STOPPED IN /lustre/home/w68/hollyj/CP2K/Cirrus/C
                                           PU/cp2kMD/ClC-253-BLYP/1STEPS/8NODES/
                                           36CPN/3THREADS
