 DBCSR| CPU Multiplication driver                                           XSMM
 DBCSR| Multrec recursion limit                                              512
 DBCSR| Multiplication stack size                                           1000
 DBCSR| Maximum elements for images                                    UNLIMITED
 DBCSR| Multiplicative factor virtual images                                   1
 DBCSR| Use multiplication densification                                       T
 DBCSR| Multiplication size stacks                                             3
 DBCSR| Use memory pool for CPU allocation                                     F
 DBCSR| Number of 3D layers                                               SINGLE
 DBCSR| Use MPI memory allocation                                              F
 DBCSR| Use RMA algorithm                                                      F
 DBCSR| Use Communication thread                                               T
 DBCSR| Communication thread load                                             87
 DBCSR| MPI: My node id                                                        0
 DBCSR| MPI: Number of nodes                                                 144
 DBCSR| OMP: Current number of threads                                         1
 DBCSR| OMP: Max number of threads                                             1
 DBCSR| Split modifier for TAS multiplication algorithm                  1.0E+00


  **** **** ******  **  PROGRAM STARTED AT               2021-04-19 14:05:19.162
 ***** ** ***  *** **   PROGRAM STARTED ON                               r1i2n25
 **    ****   ******    PROGRAM STARTED BY                                hollyj
 ***** **    ** ** **   PROGRAM PROCESS ID                                 65640
  **** **  *******  **  PROGRAM STARTED IN /lustre/home/w68/hollyj/CP2K/Cirrus/C
                                           PU/cp2kMD/CBD_PHY-PBE0/1STEPS/4NODES/
                                           36CPN/1THREADS

 CP2K| version string:                                          CP2K version 8.1
 CP2K| source code revision number:                                  git:0b61f2f
 CP2K| cp2kflags: omp libint fftw3 libxc elpa parallel mpi3 scalapack xsmm spgli
 CP2K|            b mkl
 CP2K| is freely available from                            https://www.cp2k.org/
 CP2K| Program compiled at                           Mon Feb 1 13:14:42 GMT 2021
 CP2K| Program compiled on                                         cirrus-login1
 CP2K| Program compiled for                                           Cirrus-gcc
 CP2K| Data directory path       /lustre/home/w68/hollyj/CP2K/v8.1/cp2k-8.1/data
 CP2K| Input file name                                          CBD_PHY-cp2k.inp

 GLOBAL| Force Environment number                                              1
 GLOBAL| Basis set file name                                           HFX_BASIS
 GLOBAL| Potential file name                                           POTENTIAL
 GLOBAL| MM Potential file name                                     MM_POTENTIAL
 GLOBAL| Coordinate file name                                        CBD_PHY.pdb
 GLOBAL| Method name                                                        CP2K
 GLOBAL| Project name                                               CBD_PHY-PBE0
 GLOBAL| Preferred FFT library                                             FFTW3
 GLOBAL| Preferred diagonalization lib.                                     ELPA
 GLOBAL| Run type                                                             MD
 GLOBAL| All-to-all communication in single precision                          F
 GLOBAL| FFTs using library dependent lengths                                  F
 GLOBAL| Global print level                                                  LOW
 GLOBAL| MPI I/O enabled                                                       T
 GLOBAL| Total number of message passing processes                           144
 GLOBAL| Number of threads for this process                                    1
 GLOBAL| This output is from process                                           0
 GLOBAL| CPU model name                Intel(R) Xeon(R) CPU E5-2695 v4 @ 2.10GHz
 GLOBAL| CPUID                                                              1002
 GLOBAL| Compiled for CPUID                                                 1001

 *** HINT in environment.F:802 :: The compiler target flags (x86_avx) used ***
 *** to build this binary cannot exploit all extensions of this CPU model  ***
 *** (x86_avx2). Consider compiler target flags as part of FCFLAGS and     ***
 *** CFLAGS (ARCH file).                                                   ***


 MEMORY| system memory details [Kb]
 MEMORY|                        rank 0           min           max       average
 MEMORY| MemTotal            263692172     263692172     263692180     263692174
 MEMORY| MemFree             258427240     258427240     258780844     258596338
 MEMORY| Buffers                     0             0             0             0
 MEMORY| Cached                 773344        561848        773344        630552
 MEMORY| Slab                   929076        879648        929076        899867
 MEMORY| SReclaimable           217632        203624        217632        210539
 MEMORY| MemLikelyFree       259418216     259340500     259573784     259437429



                      ************* ******** ***********   
                     ************* **********************  
                     ****     **** ****      ***********   
                     ******** ****  *******     ****       
                     *******  ****   *******   ****        
                     ****     ****       ****  ****        
                     ****     **** **********  ****        
                      ****     **** ********    ****       
                     FRONTIERS IN SIMULATION TECHNOLOGY    
                                                           
                        C.J. Mundy, S. Balasubramanian,    
                     Ken Bagchi, J. Hutter, Ari Seitsonen  
                      IFW Kuo, T. Laino, J. VandeVondele   
                                 Version 1.0               

                                                           


 EWALD| Summation is done by:                                               SPME
 EWALD| Alpha parameter [       ANGSTROM^-1]                              0.4000
 EWALD| Real Space Cutoff [          ANGSTROM]                            8.4348
 EWALD| G-space max. Miller index                         80        80        80
 EWALD| Spline interpolation order                                             6

 FORCEFIELD| WARNING: A non Critical ForceField parameter is missing! CP2K GOES!
 FORCEFIELD| Non critical parameters are:Urey-Bradley,Torsions,Impropers, Opbends and 1-4
 FORCEFIELD| All missing parameters will not contribute to the potential energy!
 FORCEFIELD| Activate the print key FF_INFO to have a list of missing parameters

 CHARGE_INFO| Total Charge of the Classical System:                    -0.825808

 SPLINE_INFO| Generating 101926 splines for NONBONDED14 interactions 
              Due to 451 different atomic kinds
  ...10192  ...20384  ...30576  ...40768  ...50960  ...61152  ...71344  ...81536  ...91728  ...101920
 SPLINE_INFO| Number of unique splines computed:            301
 SPLINE_INFO| Done

 SPLINE_INFO| Generating 101926 splines for NONBONDED interactions 
              Due to 451 different atomic kinds
  ...10192  ...20384  ...30576  ...40768  ...50960  ...61152  ...71344  ...81536  ...91728  ...101920
 SPLINE_INFO| Number of unique splines computed:            301
 SPLINE_INFO| Done

 *******************************************************************************
 *******************************************************************************
 **                                                                           **
 **     #####                         ##              ##                      **
 **    ##   ##            ##          ##              ##                      **
 **   ##     ##                       ##            ######                    **
 **   ##     ##  ##   ##  ##   #####  ##  ##   ####   ##    #####    #####    **
 **   ##     ##  ##   ##  ##  ##      ## ##   ##      ##   ##   ##  ##   ##   **
 **   ##  ## ##  ##   ##  ##  ##      ####     ###    ##   ######   ######    **
 **    ##  ###   ##   ##  ##  ##      ## ##      ##   ##   ##       ##        **
 **     #######   #####   ##   #####  ##  ##  ####    ##    #####   ##        **
 **           ##                                                    ##        **
 **                                                                           **
 **                                                ... make the atoms dance   **
 **                                                                           **
 **            Copyright (C) by CP2K developers group (2000 - 2020)           **
 **                      J. Chem. Phys. 152, 194103 (2020)                    **
 **                                                                           **
 *******************************************************************************


 TOTAL NUMBERS AND MAXIMUM NUMBERS

  Total number of            - Atomic kinds:                                   5
                             - Atoms:                                         68
                             - Shell sets:                                   340
                             - Shells:                                       445
                             - Primitive Cartesian functions:                476
                             - Cartesian basis functions:                   1137
                             - Spherical basis functions:                   1067

  Maximum angular momentum of- Orbital basis functions:                        2
                             - Local part of the GTH pseudopotential:          2
                             - Non-local part of the GTH pseudopotential:      0


 SCF PARAMETERS         Density guess:                                   RESTART
                        --------------------------------------------------------
                        max_scf:                                              30
                        max_scf_history:                                       0
                        max_diis:                                              4
                        --------------------------------------------------------
                        eps_scf:                                        1.00E-06
                        eps_scf_history:                                0.00E+00
                        eps_diis:                                       1.00E-01
                        eps_eigval:                                     1.00E-05
                        --------------------------------------------------------
                        level_shift [a.u.]:                                 0.00
                        --------------------------------------------------------
                        Outer loop SCF in use 
                        No variables optimised in outer loop
                        eps_scf                                         1.00E-06
                        max_scf                                               20
                        No outer loop optimization
                        step_size                                       5.00E-01

 *******************************************************************************
 *******************************************************************************
 **                                                                           **
 **             #######  ##     ## ##     ## ##     ##                        **
 **            ##     ## ###   ### ###   ### ###   ###                        **
 **            ##     ## #### #### #### #### #### ####                        **
 **            ##     ## ## ### ## ## ### ## ## ### ##                        **
 **            ##  ## ## ##     ## ##     ## ##     ##                        **
 **            ##    ##  ##     ## ##     ## ##     ##  T.Laino and F.Mohamed **
 **             ##### ## ##     ## ##     ## ##     ##  2005 - 2015           **
 **                                                                           **
 **                                                     Calculation Started.. **
 *******************************************************************************
 *******************************************************************************

 MD_PAR| Molecular dynamics protocol (MD input parameters)
 MD_PAR| Ensemble type                                                       NVE
 MD_PAR| Number of time steps                                                  1
 MD_PAR| Time step [fs]                                                 1.000000
 MD_PAR| Temperature [K]                                              300.000000
 MD_PAR| Temperature tolerance [K]                                      0.000000
 MD_PAR| Print MD information every                                    1 step(s)
 MD_PAR| File type   Print frequency [steps]                          File names
 MD_PAR| Coordinates          1                           CBD_PHY-PBE0-pos-1.xyz
 MD_PAR| Velocities           1                           CBD_PHY-PBE0-vel-1.xyz
 MD_PAR| Energies             1                              CBD_PHY-PBE0-1.ener
 MD_PAR| Dump                20                           CBD_PHY-PBE0-1.restart

 ROT| Rotational analysis information
 ROT| Principal axes and moments of inertia [a.u.]
 ROT|                           1                   2                   3
 ROT| Eigenvalues      1.56283164001E+13   1.56407408488E+13   1.56663418804E+13
 ROT|      x              0.901637047331     -0.018153263569      0.432112362589
 ROT|      y              0.323714777231      0.690893927917     -0.646431994389
 ROT|      z             -0.286808957117      0.722728191915      0.628812040859
 ROT| Number of rotovibrational vectors                                        6

 DOF| Calculation of degrees of freedom
 DOF| Number of atoms                                                     167923
 DOF| Number of intramolecular constraints                                     0
 DOF| Number of intermolecular constraints                                     0
 DOF| Invariants (translations + rotations)                                    3
 DOF| Degrees of freedom                                                  503766

 DOF| Restraints information
 DOF| Number of intramolecular restraints                                      0
 DOF| Number of intermolecular restraints                                      0

 MD_VEL| Velocities initialization
 MD_VEL| Initial temperature [K]                                      300.000000
 MD_VEL| COM velocity            -0.0000000000     0.0000000000     0.0000000000

  Translating the system in order to center the QM fragment in the QM box.

 Number of electrons:                                                        180
 Number of occupied orbitals:                                                 90
 Number of molecular orbitals:                                                90

 Number of orbital functions:                                               1067
 Number of independent orbital functions:                                   1067

 Extrapolation method: initial_guess


 SCF WAVEFUNCTION OPTIMIZATION

  ----------------------------------- OT ---------------------------------------
  Minimizer      : DIIS                : direct inversion
                                         in the iterative subspace
                                         using   7 DIIS vectors
                                         safer DIIS on
  Preconditioner : FULL_ALL            : diagonalization, state selective
  Precond_solver : DEFAULT
  stepsize       :    0.15000000                  energy_gap     :    0.08000000
  eps_taylor     :   0.10000E-15                  max_taylor     :             4
  ----------------------------------- OT ---------------------------------------

  Step     Update method      Time    Convergence         Total energy    Change
  ------------------------------------------------------------------------------
  Decoupling Energy:                                               0.0370647021
  Recoupling Energy:                                              -0.0063741479
     1 OT DIIS     0.15E+00   14.4     0.00129057      -255.9257316527 -2.56E+02
  Decoupling Energy:                                               0.0370576004
  Recoupling Energy:                                              -0.0063740314
     2 OT DIIS     0.15E+00    2.7     0.00057761      -255.9419521970 -1.62E-02
  Decoupling Energy:                                               0.0369596417
  Recoupling Energy:                                              -0.0063730135
     3 OT DIIS     0.15E+00    2.7     0.00038348      -255.9451217312 -3.17E-03
  Decoupling Energy:                                               0.0369795469
  Recoupling Energy:                                              -0.0063732416
     4 OT DIIS     0.15E+00    2.7     0.00009866      -255.9458275763 -7.06E-04
  Decoupling Energy:                                               0.0369716948
  Recoupling Energy:                                              -0.0063731487
     5 OT DIIS     0.15E+00    2.7     0.00003992      -255.9458779680 -5.04E-05
  Decoupling Energy:                                               0.0369737640
  Recoupling Energy:                                              -0.0063731649
     6 OT DIIS     0.15E+00    2.7     0.00001793      -255.9458894165 -1.14E-05
  Decoupling Energy:                                               0.0369741807
  Recoupling Energy:                                              -0.0063731680
     7 OT DIIS     0.15E+00    2.7     0.00000621      -255.9458922933 -2.88E-06
  Decoupling Energy:                                               0.0369727127
  Recoupling Energy:                                              -0.0063731518
     8 OT DIIS     0.15E+00    2.7     0.00000242      -255.9458926323 -3.39E-07
  Decoupling Energy:                                               0.0369731060
  Recoupling Energy:                                              -0.0063731556
     9 OT DIIS     0.15E+00    2.7     0.00000111      -255.9458926817 -4.94E-08
  Decoupling Energy:                                               0.0369728227
  Recoupling Energy:                                              -0.0063731526
    10 OT DIIS     0.15E+00    2.7     0.00000048      -255.9458926919 -1.02E-08

  *** SCF run converged in    10 steps ***


  Electronic density on regular grids:       -179.9999999999        0.0000000001
  Core density on regular grids:              180.9999999999       -0.0000000001
  Total charge density on r-space grids:        1.0000000000
  Total charge density g-space grids:           1.0000000000

  Overlap energy of the core charge distribution:               0.00001951532734
  Self energy of the core charge distribution:               -615.71576003586028
  Core Hamiltonian energy:                                    191.01363234739819
  Hartree energy:                                             248.20663852139268
  Exchange-correlation energy:                                -61.38430758347197
  Hartree-Fock Exchange energy:                               -18.10821017491985
  QM/MM Electrostatic energy:                                   0.04209471826934

  Total energy:                                              -255.94589269186454

  outer SCF iter =    1 RMS gradient =   0.48E-06 energy =       -255.9458926919
  outer SCF loop converged in   1 iterations or   10 steps

  Decoupling Energy:                                               0.0369728028
  Recoupling Energy:                                              -0.0063731523

 ENERGY| Total FORCE_EVAL ( QMMM ) energy [a.u.]:          -1088.110859623936904

 MD_INI| MD initialization
 MD_INI| Potential energy [hartree]                          -0.108811085962E+04
 MD_INI| Total kinetic energy [hartree]                       0.239300084734E+03
 MD_INI| QM kinetic energy [hartree]                          0.106639360339E+00
 MD_INI| Total temperature [K]                                        300.000000
 MD_INI| QM temperature [K]                                           330.137318
 MD_INI| Cell volume [bohr^3]                                 1.137316355424E+07
 MD_INI| Cell volume [ang^3]                                  1.685328937712E+06
 MD_INI| Cell lengths [bohr]      2.24884969E+02  2.24884969E+02  2.24884969E+02
 MD_INI| Cell lengths [ang]       1.19004000E+02  1.19004000E+02  1.19004000E+02
 MD_INI| Cell angles [deg]        9.00000000E+01  9.00000000E+01  9.00000000E+01

  Translating the system in order to center the QM fragment in the QM box.

 Number of electrons:                                                        180
 Number of occupied orbitals:                                                 90
 Number of molecular orbitals:                                                90

 Number of orbital functions:                                               1067
 Number of independent orbital functions:                                   1067

 Extrapolation method: ASPC


 SCF WAVEFUNCTION OPTIMIZATION

  ----------------------------------- OT ---------------------------------------
  Minimizer      : DIIS                : direct inversion
                                         in the iterative subspace
                                         using   7 DIIS vectors
                                         safer DIIS on
  Preconditioner : FULL_ALL            : diagonalization, state selective
  Precond_solver : DEFAULT
  stepsize       :    0.15000000                  energy_gap     :    0.08000000
  eps_taylor     :   0.10000E-15                  max_taylor     :             4
  ----------------------------------- OT ---------------------------------------

  Step     Update method      Time    Convergence         Total energy    Change
  ------------------------------------------------------------------------------
  Decoupling Energy:                                               0.0370014666
  Recoupling Energy:                                              -0.0063734172
     1 OT DIIS     0.15E+00   10.6     0.00075899      -255.7182133415 -2.56E+02
  Decoupling Energy:                                               0.0370082380
  Recoupling Energy:                                              -0.0063735355
     2 OT DIIS     0.15E+00    2.6     0.00032685      -255.7237311740 -5.52E-03
  Decoupling Energy:                                               0.0370087414
  Recoupling Energy:                                              -0.0063735590
     3 OT DIIS     0.15E+00    2.6     0.00019068      -255.7247684970 -1.04E-03
  Decoupling Energy:                                               0.0370199884
  Recoupling Energy:                                              -0.0063736817
     4 OT DIIS     0.15E+00    2.6     0.00006054      -255.7249609300 -1.92E-04
  Decoupling Energy:                                               0.0370216764
  Recoupling Energy:                                              -0.0063737045
     5 OT DIIS     0.15E+00    2.6     0.00001954      -255.7249774946 -1.66E-05
  Decoupling Energy:                                               0.0370210006
  Recoupling Energy:                                              -0.0063736984
     6 OT DIIS     0.15E+00    2.6     0.00000817      -255.7249797529 -2.26E-06
  Decoupling Energy:                                               0.0370221930
  Recoupling Energy:                                              -0.0063737124
     7 OT DIIS     0.15E+00    2.6     0.00000308      -255.7249802150 -4.62E-07
  Decoupling Energy:                                               0.0370222383
  Recoupling Energy:                                              -0.0063737132
     8 OT DIIS     0.15E+00    2.6     0.00000136      -255.7249802923 -7.72E-08
  Decoupling Energy:                                               0.0370224660
  Recoupling Energy:                                              -0.0063737159
     9 OT DIIS     0.15E+00    2.6     0.00000058      -255.7249803080 -1.57E-08

  *** SCF run converged in     9 steps ***


  Electronic density on regular grids:       -180.0000000000        0.0000000000
  Core density on regular grids:              180.9999999999       -0.0000000001
  Total charge density on r-space grids:        0.9999999999
  Total charge density g-space grids:           0.9999999999

  Overlap energy of the core charge distribution:               0.00002422740857
  Self energy of the core charge distribution:               -615.71576003586028
  Core Hamiltonian energy:                                    191.21094902626771
  Hartree energy:                                             248.07774947551425
  Exchange-correlation energy:                                -61.42683515625019
  Hartree-Fock Exchange energy:                               -18.12283152671701
  QM/MM Electrostatic energy:                                   0.25172368166593

  Total energy:                                              -255.72498030797104

  outer SCF iter =    1 RMS gradient =   0.58E-06 energy =       -255.7249803080
  outer SCF loop converged in   1 iterations or    9 steps

  Decoupling Energy:                                               0.0370224945
  Recoupling Energy:                                              -0.0063737164

 ENERGY| Total FORCE_EVAL ( QMMM ) energy [a.u.]:          -1059.962356483104259

 MD| ***************************************************************************
 MD| Step number                                                               1
 MD| Time [fs]                                                          1.000000
 MD| Conserved quantity [hartree]                            -0.841461427287E+03
 MD| ---------------------------------------------------------------------------
 MD|                                          Instantaneous             Averages
 MD| CPU time per MD step [s]                    226.226646           226.226646
 MD| Energy drift per atom [K]           0.138202488746E+02   0.000000000000E+00
 MD| Potential energy [hartree]         -0.105996235648E+04  -0.105996235648E+04
 MD| Total kinetic energy [hartree]      0.218500929196E+03   0.218500929196E+03
 MD| QM kinetic energy [hartree]         0.121347070797E+00   0.121347070797E+00
 MD| Total temperature [K]                       273.925013           273.925013
 MD| QM temperature [K]                          375.669888           375.669888
 MD| ***************************************************************************

 -------------------------------------------------------------------------------
 -                                                                             -
 -                                DBCSR STATISTICS                             -
 -                                                                             -
 -------------------------------------------------------------------------------
 COUNTER                                    TOTAL       BLAS       SMM       ACC
 flops     9 x    26 x    26               803088       0.0%    100.0%      0.0%
 flops    22 x    26 x    26              2082080       0.0%    100.0%      0.0%
 flops     9 x    32 x    32              2433024       0.0%    100.0%      0.0%
 flops    26 x    26 x    26              5343104       0.0%    100.0%      0.0%
 flops    22 x    32 x    32              6307840       0.0%    100.0%      0.0%
 flops    26 x    26 x    89              9385584       0.0%    100.0%      0.0%
 flops    89 x    26 x    26             11431160       0.0%    100.0%      0.0%
 flops    26 x    26 x    32             13152256       0.0%    100.0%      0.0%
 flops    26 x    32 x    26             13152256       0.0%    100.0%      0.0%
 flops    32 x    26 x    26             13152256       0.0%    100.0%      0.0%
 flops    89 x    26 x    89             17299464       0.0%    100.0%      0.0%
 flops    26 x    32 x    89             23102976       0.0%    100.0%      0.0%
 flops    32 x    26 x    89             23102976       0.0%    100.0%      0.0%
 flops    89 x    26 x    32             28138240       0.0%    100.0%      0.0%
 flops    89 x    32 x    26             28138240       0.0%    100.0%      0.0%
 flops    32 x    32 x    26             32374784       0.0%    100.0%      0.0%
 flops    26 x    32 x    32             32374784       0.0%    100.0%      0.0%
 flops    32 x    26 x    32             32374784       0.0%    100.0%      0.0%
 flops    89 x    32 x    89             42583296       0.0%    100.0%      0.0%
 flops    26 x    26 x    84             44291520       0.0%    100.0%      0.0%
 flops    84 x    26 x    26             53944800       0.0%    100.0%      0.0%
 flops     9 x     9 x    26             54347436       0.0%    100.0%      0.0%
 flops    32 x    32 x    89             56868864       0.0%    100.0%      0.0%
 flops    26 x    26 x    93             58844448       0.0%    100.0%      0.0%
 flops    89 x    32 x    32             69263360       0.0%    100.0%      0.0%
 flops    93 x    26 x    26             71669520       0.0%    100.0%      0.0%
 flops    32 x    32 x    32             79691776       0.0%    100.0%      0.0%
 flops    84 x    26 x    89             81637920       0.0%    100.0%      0.0%
 flops    89 x    26 x    84             81637920       0.0%    100.0%      0.0%
 flops    93 x    26 x    89            108461808       0.0%    100.0%      0.0%
 flops    89 x    26 x    93            108461808       0.0%    100.0%      0.0%
 flops    26 x    32 x    84            109025280       0.0%    100.0%      0.0%
 flops    32 x    26 x    84            109025280       0.0%    100.0%      0.0%
 flops    84 x    32 x    26            132787200       0.0%    100.0%      0.0%
 flops    84 x    26 x    32            132787200       0.0%    100.0%      0.0%
 flops     9 x     9 x    32            133778304       0.0%    100.0%      0.0%
 flops    22 x     9 x    26            136638216       0.0%    100.0%      0.0%
 flops     9 x    22 x    26            136875024       0.0%    100.0%      0.0%
 flops    26 x    32 x    93            144847872       0.0%    100.0%      0.0%
 flops    32 x    26 x    93            144847872       0.0%    100.0%      0.0%
 flops    93 x    26 x    32            176417280       0.0%    100.0%      0.0%
 flops    93 x    32 x    26            176417280       0.0%    100.0%      0.0%
 flops    84 x    32 x    89            200954880       0.0%    100.0%      0.0%
 flops    89 x    32 x    84            200954880       0.0%    100.0%      0.0%
 flops     9 x    26 x     9            238517136       0.0%    100.0%      0.0%
 flops    93 x    32 x    89            266982912       0.0%    100.0%      0.0%
 flops    89 x    32 x    93            266982912       0.0%    100.0%      0.0%
 flops    32 x    32 x    84            268369920       0.0%    100.0%      0.0%
 flops    84 x    32 x    32            326860800       0.0%    100.0%      0.0%
 flops    22 x     9 x    32            336340224       0.0%    100.0%      0.0%
 flops     9 x    22 x    32            336923136       0.0%    100.0%      0.0%
 flops    32 x    32 x    93            356548608       0.0%    100.0%      0.0%
 flops    22 x    22 x    26            364684320       0.0%    100.0%      0.0%
 flops    84 x    26 x    84            385257600       0.0%    100.0%      0.0%
 flops    93 x    32 x    32            434257920       0.0%    100.0%      0.0%
 flops    93 x    26 x    84            511842240       0.0%    100.0%      0.0%
 flops    84 x    26 x    93            511842240       0.0%    100.0%      0.0%
 flops     9 x    32 x     9            587119104       0.0%    100.0%      0.0%
 flops    22 x    26 x     9            618377760       0.0%    100.0%      0.0%
 flops     9 x    26 x    22            618377760       0.0%    100.0%      0.0%
 flops    93 x    26 x    93            680018976       0.0%    100.0%      0.0%
 flops    22 x    22 x    32            897684480       0.0%    100.0%      0.0%
 flops    84 x    32 x    84            948326400       0.0%    100.0%      0.0%
 flops    84 x    32 x    93           1259919360       0.0%    100.0%      0.0%
 flops    93 x    32 x    84           1259919360       0.0%    100.0%      0.0%
 flops     9 x    32 x    22           1522160640       0.0%    100.0%      0.0%
 flops    22 x    32 x     9           1522160640       0.0%    100.0%      0.0%
 flops    22 x    26 x    22           1603201600       0.0%    100.0%      0.0%
 flops    93 x    32 x    93           1673892864       0.0%    100.0%      0.0%
 flops    22 x    32 x    22           3946342400       0.0%    100.0%      0.0%
 flops inhomo. stacks                           0       0.0%      0.0%      0.0%
 flops total                        24.884121E+09       0.0%    100.0%      0.0%
 flops max/rank                    801.921300E+06       0.0%    100.0%      0.0%
 matmuls inhomo. stacks                         0       0.0%      0.0%      0.0%
 matmuls total                             924558       0.0%    100.0%      0.0%
 number of processed stacks                170124       0.0%    100.0%      0.0%
 average stack size                                     0.0       5.4       0.0
 marketing flops                    27.257680E+09
 -------------------------------------------------------------------------------
 # multiplications                            446
 max memory usage/rank               1.678643E+09
 # max total images/rank                        1
 # max 3D layers                                1
 # MPI messages exchanged                 1412928
 MPI messages size (bytes):
  total size                        13.023570E+09
  min size                           0.000000E+00
  max size                          69.192000E+03
  average size                       9.217434E+03
 MPI breakdown and total messages size (bytes):
             size <=      128             1068837                        0
       128 < size <=     8192               39567                284886624
      8192 < size <=    32768              155628               3321101520
     32768 < size <=   131072              148896               9417581008
    131072 < size <=  4194304                   0                        0
   4194304 < size <= 16777216                   0                        0
  16777216 < size                               0                        0
 -------------------------------------------------------------------------------
 -                                                                             -
 -                      DBCSR MESSAGE PASSING PERFORMANCE                      -
 -                                                                             -
 -------------------------------------------------------------------------------
 ROUTINE             CALLS      AVE VOLUME [Bytes]
 MP_Bcast               71                     12.
 MP_Allreduce         2513                      9.
 MP_Alltoall          1655                  28072.
 MP_ISend            21400                   6702.
 MP_IRecv            21400                   6458.
 -------------------------------------------------------------------------------

 -------------------------------------------------------------------------------
 -                                                                             -
 -                                GRID STATISTICS                              -
 -                                                                             -
 -------------------------------------------------------------------------------
 LP    KERNEL             BACKEND                              COUNT     PERCENT
 2     collocate ortho    REF                                 375167      18.87%
 2     integrate ortho    REF                                 369367      18.58%
 1     collocate ortho    REF                                 314273      15.81%
 1     integrate ortho    REF                                 293244      14.75%
 3     integrate ortho    REF                                 186579       9.39%
 3     collocate ortho    REF                                 166727       8.39%
 0     collocate ortho    REF                                  93461       4.70%
 0     integrate ortho    REF                                  84559       4.25%
 4     integrate ortho    REF                                  38185       1.92%
 4     collocate ortho    REF                                  24654       1.24%
 0     collocate general  REF                                  19584       0.99%
 1     integrate general  REF                                  19584       0.99%
 5     integrate ortho    REF                                   2348       0.12%
 -------------------------------------------------------------------------------

 MEMORY| Estimated peak process memory [MiB]                                1717

 -------------------------------------------------------------------------------
 -                                                                             -
 -                         MESSAGE PASSING PERFORMANCE                         -
 -                                                                             -
 -------------------------------------------------------------------------------

 ROUTINE             CALLS      AVE VOLUME [Bytes]
 MP_Group                8
 MP_Bcast             6728               10901597.
 MP_Allreduce         1041                1124004.
 MP_Sync               130
 MP_Alltoall           441                7789209.
 MP_ISendRecv        19448                  35416.
 MP_Wait             24022
 MP_ISend             4170                 188652.
 MP_IRecv             4104                 191263.
 MP_Recv                22                  68288.
 -------------------------------------------------------------------------------


 -------------------------------------------------------------------------------
 -                                                                             -
 -                           R E F E R E N C E S                               -
 -                                                                             -
 -------------------------------------------------------------------------------
 
 CP2K version 8.1, the CP2K developers group (2020).
 CP2K is freely available from https://www.cp2k.org/ .

 Kuehne,Thomas D.; Iannuzzi,Marcella; Del Ben,Mauro;
 Rybkin,Vladimir V.; Seewald,Patrick; Stein,Frederick; Laino,Teodoro;
 Khaliullin,Rustam Z.; Schuett,Ole; Schiffmann,Florian; Golze,Dorothea;
 Wilhelm,Jan; Chulkov,Sergey; Bani-Hashemian,Mohammad Hossein;
 Weber,Valery; Borstnik,Urban; Taillefumier,Mathieu;
 Jakobovits,Alice Shoshana; Lazzaro,Alfio; Pabst,Hans; Mueller,Tiziano;
 Schade,Robert; Guidon,Manuel; Andermatt,Samuel; Holmberg,Nico;
 Schenter,Gregory K.; Hehn,Anna; Bussy,Augustin; Belleflamme,Fabian;
 Tabacchi,Gloria; Gloess,Andreas; Lass,Michael; Bethune,Iain;
 Mundy,Christopher J.; Plessl,Christian; Watkins,Matt;
 VandeVondele,Joost; Krack,Matthias; Hutter,Juerg. 
 The Journal of Chemical Physics, 152 (19), (2020). 
 CP2K: An electronic structure and molecular dynamics software package -
 Quickstep: Efficient and accurate electronic structure calculations.
 https://doi.org/10.1063/5.0007045

 Schuett, Ole; Messmer, Peter; Hutter, Juerg; VandeVondele, Joost. 
 Electronic Structure Calculations on Graphics Processing Units, John
 Wiley & Sons, Ltd, 173-190 (2016). 
 GPU-Accelerated Sparse Matrix-Matrix Multiplication for
 Linear Scaling Density Functional Theory.
 https://doi.org/10.1002/9781118670712.ch8

 Borstnik, U; VandeVondele, J; Weber, V; Hutter, J. 
 PARALLEL COMPUTING, 40 (5-6), 47-58 (2014). 
 Sparse matrix multiplication: The distributed block-compressed sparse
 row library.
 https://doi.org/10.1016/j.parco.2014.03.012

 Hutter, J; Iannuzzi, M; Schiffmann, F; VandeVondele, J. 
 WIREs Comput Mol Sci., 4 (1), 15-25 (2014). 
 CP2K: atomistic simulations of condensed matter systems.
 https://doi.org/10.1002/wcms.1159

 Marek, A; Blum, V; Johanni, R; Havu, V; Lang, B; Auckenthaler, T;
 Heinecke, A; Bungartz, H; Lederer, H. 
 Journal of Physics: Condensed Matter, 26 (21), (2014). 
 The ELPA library: scalable parallel eigenvalue solutions for
 electronic structure
 theory and computational science.
 https://doi.org/10.1088/0953-8984/26/21/213201

 Guidon, M; Hutter, J; VandeVondele, J. 
 JOURNAL OF CHEMICAL THEORY AND COMPUTATION, 5 (11), 3010-3021 (2009). 
 Robust Periodic Hartree-Fock Exchange for Large-Scale Simulations Using
 Gaussian Basis Sets.
 https://doi.org/10.1021/ct900494g

 Guidon, M; Schiffmann, F; Hutter, J; VandeVondele, J. 
 JOURNAL OF CHEMICAL PHYSICS, 128 (21), 214104 (2008). 
 Ab initio molecular dynamics using hybrid density functionals.
 https://doi.org/10.1063/1.2931945

 Kuhne, TD; Krack, M; Mohamed, FR; Parrinello, M. 
 PHYSICAL REVIEW LETTERS, 98 (6), 066401 (2007). 
 Efficient and accurate Car-Parrinello-like approach to
 Born-Oppenheimer molecular dynamics.
 https://doi.org/10.1103/PhysRevLett.98.066401

 Laino, T; Mohamed, F; Laio, A; Parrinello, M. 
 JOURNAL OF CHEMICAL THEORY AND COMPUTATION, 2 (5), 1370-1378 (2006). 
 An efficient linear-scaling electrostatic coupling for treating
 periodic boundary conditions in QM/MM simulations.
 https://doi.org/10.1021/ct6001169

 Laino, T; Mohamed, F; Laio, A; Parrinello, M. 
 JOURNAL OF CHEMICAL THEORY AND COMPUTATION, 1 (6), 1176-1184 (2005). 
 An efficient real space multigrid QM/MM electrostatic coupling.
 https://doi.org/10.1021/ct050123f

 Krack, M. 
 THEORETICAL CHEMISTRY ACCOUNTS, 114 (1-3), 145-152 (2005). 
 Pseudopotentials for H to Kr optimized for gradient-corrected
 exchange-correlation functionals.
 https://doi.org/10.1007/s00214-005-0655-y

 VandeVondele, J; Krack, M; Mohamed, F; Parrinello, M; Chassaing, T;
 Hutter, J. COMPUTER PHYSICS COMMUNICATIONS, 167 (2), 103-128 (2005). 
 QUICKSTEP: Fast and accurate density functional calculations using a
 mixed Gaussian and plane waves approach.
 https://doi.org/10.1016/j.cpc.2004.12.014

 Frigo, M; Johnson, SG. 
 PROCEEDINGS OF THE IEEE, 93 (2), 216-231 (2005). 
 The design and implementation of FFTW3.
 https://doi.org/10.1109/JPROC.2004.840301

 Kolafa, J. 
 JOURNAL OF COMPUTATIONAL CHEMISTRY, 25 (3), 335-342 (2004). 
 Time-reversible always stable predictor-corrector method for molecular dynamics of polarizable molecules.
 https://doi.org/10.1002/jcc.10385

 VandeVondele, J; Hutter, J. 
 JOURNAL OF CHEMICAL PHYSICS, 118 (10), 4365-4369 (2003). 
 An efficient orbital transformation method for electronic structure
 calculations.
 https://doi.org/10.1063/1.1543154

 Hartwigsen, C; Goedecker, S; Hutter, J. 
 PHYSICAL REVIEW B, 58 (7), 3641-3662 (1998). 
 Relativistic separable dual-space Gaussian pseudopotentials from H to Rn.
 https://doi.org/10.1103/PhysRevB.58.3641

 Lippert, G; Hutter, J; Parrinello, M. 
 MOLECULAR PHYSICS, 92 (3), 477-487 (1997). 
 A hybrid Gaussian and plane wave density functional scheme.
 https://doi.org/10.1080/002689797170220

 Perdew, JP; Burke, K; Ernzerhof, M. 
 PHYSICAL REVIEW LETTERS, 77 (18), 3865-3868 (1996). 
 Generalized gradient approximation made simple.
 https://doi.org/10.1103/PhysRevLett.77.3865

 Goedecker, S; Teter, M; Hutter, J. 
 PHYSICAL REVIEW B, 54 (3), 1703-1710 (1996). 
 Separable dual-space Gaussian pseudopotentials.
 https://doi.org/10.1103/PhysRevB.54.1703

 ESSMANN, U; PERERA, L; BERKOWITZ, ML; DARDEN, T; LEE, H; PEDERSEN, LG. 
 JOURNAL OF CHEMICAL PHYSICS, 103 (19), 8577-8593 (1995). 
 A SMOOTH PARTICLE MESH EWALD METHOD.
 https://doi.org/10.1063/1.470117

 BLOCHL, PE. 
 JOURNAL OF CHEMICAL PHYSICS, 103 (17), 7422-7428 (1995). 
 ELECTROSTATIC DECOUPLING OF PERIODIC IMAGES OF PLANE-WAVE-EXPANDED
 DENSITIES AND DERIVED ATOMIC POINT CHARGES.
 https://doi.org/10.1063/1.470314


 -------------------------------------------------------------------------------
 -                                                                             -
 -                                T I M I N G                                  -
 -                                                                             -
 -------------------------------------------------------------------------------
 SUBROUTINE                       CALLS  ASD         SELF TIME        TOTAL TIME
                                MAXIMUM       AVERAGE  MAXIMUM  AVERAGE  MAXIMUM
 CP2K                                 1  1.0    0.627    0.658  291.157  291.157
 qs_mol_dyn_low                       1  2.0    0.018    0.022  227.515  229.572
 qs_forces                            2  3.5    0.001    0.001  139.379  139.388
 rebuild_ks_matrix                   21  8.2    0.000    0.000  126.607  126.614
 qs_ks_build_kohn_sham_matrix        21  9.2    0.004    0.004  126.607  126.614
 velocity_verlet                      1  3.0    0.015    0.016  106.685  106.691
 hfx_ks_matrix                       21 10.2    0.001    0.001  104.576  104.576
 qs_energies                          2  4.5    0.000    0.000   73.602   73.611
 scf_env_do_scf                       2  5.5    0.000    0.000   71.130   71.130
 qs_ks_update_qs_env_forces           2  4.5    0.000    0.000   65.719   65.719
 derivatives_four_center              2  8.5    0.013    0.383   61.165   61.165
 qmmm_env_create                      1  2.0   16.528   17.479   60.927   60.932
 qs_ks_update_qs_env                 21  7.5    0.000    0.000   60.890   60.897
 derivatives_four_center_main         2  9.5    0.001    0.001   60.549   60.550
 derivatives_four_center_bin        140 10.5   56.031   60.376   56.031   60.376
 qmmm_forces                          2  3.5    0.027    0.027   46.549   46.551
 scf_env_do_scf_inner_loop           19  6.5    0.001    0.002   46.239   46.245
 qmmm_forces_with_gaussian            2  4.5    0.014    0.016   45.458   46.166
 integrate_four_center               21 11.2    0.094    0.478   43.408   43.408
 fist_init                            1  3.0    0.000    0.000   39.244   39.245
 integrate_four_center_main          21 12.2    0.006    0.007   37.478   38.773
 integrate_four_center_bin         1365 13.2   37.471   38.767   37.471   38.767
 qmmm_el_coupling                     2  3.5    0.000    0.000   33.749   33.980
 qmmm_elec_with_gaussian              2  4.5    0.006    0.009   33.747   33.978
 init_scf_loop                        2  6.5    0.000    0.000   24.884   24.885
 qmmm_force_with_gaussian_low         2  5.5    0.000    0.000   24.299   24.735
 force_field_control                  1  4.0    0.000    0.000   22.473   23.113
 qmmm_forces_gaussian_low_R           2  6.5    0.000    0.000   20.674   20.917
 qmmm_forces_with_gaussian_LG         2  7.5   20.674   20.917   20.674   20.917
 pw_transfer                        442 11.7    0.030    0.039   19.575   20.485
 fft_wrap_pw1pw2                    369 12.9    0.005    0.005   19.358   20.270
 rdparm_amber_8                       2  6.5   14.373   15.501   18.039   18.426
 pw_restrict_s3                       6  5.5    7.096    7.199   17.800   18.146
 fft3d_ps                           369 14.9    5.537    6.793   16.879   17.786
 topology_control                     1  4.0    0.000    0.000   16.151   17.112
 qmmm_elec_with_gaussian_low          2  5.5    0.000    0.000   16.110   16.532
 fft_wrap_pw1pw2_200                235 14.1    0.820    0.900   15.571   16.495
 qmmm_elec_gaussian_low_R             2  6.5    0.000    0.000   14.071   14.568
 qmmm_elec_with_gaussian_LG           2  7.5   14.071   14.568   14.071   14.568
 force_field_pack                     1  5.0    0.022    0.026   13.830   14.387
 qmmm_elec_with_gaussian:spline       2  5.5    0.000    0.000   13.542   13.771
 pw_prolongate_s3                     6  6.5    5.340    5.454   13.542   13.771
 pw_integral_ab                     911  7.0   11.591   12.203   11.925   12.636
 mp_alltoall_z22v                   369 16.9   10.435   11.340   10.435   11.340
 qs_vxc_create                       21 10.2    0.001    0.001   11.179   11.181
 xc_vxc_pw_create                    21 11.2    0.077    0.106   11.178   11.181
 force_field_pack_splines             2  6.0    0.025    0.029   10.309   10.588
 get_nonbond_storage                  2  7.0    0.300    0.319    9.939   10.220
 qs_rho_update_rho                   21  7.5    0.000    0.000   10.187   10.191
 calculate_rho_elec                  21  8.5    0.023    0.030   10.187   10.191
 mp_sum_dm3                          13  5.2    9.853   10.178    9.853   10.178
 set_potparm_index                  602  8.0    0.443    0.461    9.639    9.932
 connectivity_control                 2  4.0    0.000    0.000    9.807    9.826
 read_connectivity_amber              1  6.0    0.000    0.000    9.543    9.558
 init_genpot                        604  9.0    9.223    9.514    9.223    9.514
 density_rs2pw                       21  9.5    0.001    0.002    9.021    9.455
 rs_pw_transfer                     180 11.5    0.003    0.004    9.022    9.376
 yz_to_x                            172 15.4    0.289    0.347    8.178    9.018
 read_force_field_amber               1  5.0    0.012    0.014    8.508    8.890
 sum_up_and_integrate                21 10.2    0.026    0.036    8.503    8.515
 integrate_v_rspace                  21 11.2    0.001    0.001    8.477    8.490
 mp_waitany                        4104 13.4    5.806    6.294    5.806    6.294
 grid_collocate_task_list            21  9.5    0.984    6.152    0.984    6.152
 mp_sum_lv                           81  2.9    4.524    6.040    4.524    6.040
 rs_pw_transfer_RS2PW_200            23 11.3    0.659    0.901    4.747    5.949
 -------------------------------------------------------------------------------

 The number of warnings for this run is : 0
 
 -------------------------------------------------------------------------------
  **** **** ******  **  PROGRAM ENDED AT                 2021-04-19 14:10:11.224
 ***** ** ***  *** **   PROGRAM RAN ON                                   r1i2n25
 **    ****   ******    PROGRAM RAN BY                                    hollyj
 ***** **    ** ** **   PROGRAM PROCESS ID                                 65640
  **** **  *******  **  PROGRAM STOPPED IN /lustre/home/w68/hollyj/CP2K/Cirrus/C
                                           PU/cp2kMD/CBD_PHY-PBE0/1STEPS/4NODES/
                                           36CPN/1THREADS
